 Entering Link 1 = G:\DOWNLOAD\daf\New folder (4)\G09W\l1.exe PID=     10664.
  
 Copyright (c) 1988,1990,1992,1993,1995,1998,2003,2009,2013,
            Gaussian, Inc.  All Rights Reserved.
  
 This is part of the Gaussian(R) 09 program.  It is based on
 the Gaussian(R) 03 system (copyright 2003, Gaussian, Inc.),
 the Gaussian(R) 98 system (copyright 1998, Gaussian, Inc.),
 the Gaussian(R) 94 system (copyright 1995, Gaussian, Inc.),
 the Gaussian 92(TM) system (copyright 1992, Gaussian, Inc.),
 the Gaussian 90(TM) system (copyright 1990, Gaussian, Inc.),
 the Gaussian 88(TM) system (copyright 1988, Gaussian, Inc.),
 the Gaussian 86(TM) system (copyright 1986, Carnegie Mellon
 University), and the Gaussian 82(TM) system (copyright 1983,
 Carnegie Mellon University). Gaussian is a federally registered
 trademark of Gaussian, Inc.
  
 This software contains proprietary and confidential information,
 including trade secrets, belonging to Gaussian, Inc.
  
 This software is provided under written license and may be
 used, copied, transmitted, or stored only in accord with that
 written license.
  
 The following legend is applicable only to US Government
 contracts under FAR:
  
                    RESTRICTED RIGHTS LEGEND
  
 Use, reproduction and disclosure by the US Government is
 subject to restrictions as set forth in subparagraphs (a)
 and (c) of the Commercial Computer Software - Restricted
 Rights clause in FAR 52.227-19.
  
 Gaussian, Inc.
 340 Quinnipiac St., Bldg. 40, Wallingford CT 06492
  
  
 ---------------------------------------------------------------
 Warning -- This program may not be used in any manner that
 competes with the business of Gaussian, Inc. or will provide
 assistance to any competitor of Gaussian, Inc.  The licensee
 of this program is prohibited from giving any competitor of
 Gaussian, Inc. access to this program.  By using this program,
 the user acknowledges that Gaussian, Inc. is engaged in the
 business of creating and licensing software in the field of
 computational chemistry and represents and warrants to the
 licensee that it is not a competitor of Gaussian, Inc. and that
 it will not use this program in any manner prohibited above.
 ---------------------------------------------------------------
  

 Cite this work as:
 Gaussian 09, Revision D.01,
 M. J. Frisch, G. W. Trucks, H. B. Schlegel, G. E. Scuseria, 
 M. A. Robb, J. R. Cheeseman, G. Scalmani, V. Barone, B. Mennucci, 
 G. A. Petersson, H. Nakatsuji, M. Caricato, X. Li, H. P. Hratchian, 
 A. F. Izmaylov, J. Bloino, G. Zheng, J. L. Sonnenberg, M. Hada, 
 M. Ehara, K. Toyota, R. Fukuda, J. Hasegawa, M. Ishida, T. Nakajima, 
 Y. Honda, O. Kitao, H. Nakai, T. Vreven, J. A. Montgomery, Jr., 
 J. E. Peralta, F. Ogliaro, M. Bearpark, J. J. Heyd, E. Brothers, 
 K. N. Kudin, V. N. Staroverov, T. Keith, R. Kobayashi, J. Normand, 
 K. Raghavachari, A. Rendell, J. C. Burant, S. S. Iyengar, J. Tomasi, 
 M. Cossi, N. Rega, J. M. Millam, M. Klene, J. E. Knox, J. B. Cross, 
 V. Bakken, C. Adamo, J. Jaramillo, R. Gomperts, R. E. Stratmann, 
 O. Yazyev, A. J. Austin, R. Cammi, C. Pomelli, J. W. Ochterski, 
 R. L. Martin, K. Morokuma, V. G. Zakrzewski, G. A. Voth, 
 P. Salvador, J. J. Dannenberg, S. Dapprich, A. D. Daniels, 
 O. Farkas, J. B. Foresman, J. V. Ortiz, J. Cioslowski, 
 and D. J. Fox, Gaussian, Inc., Wallingford CT, 2013.
 
 ******************************************
 Gaussian 09:  IA32W-G09RevD.01 24-Apr-2013
                25-Jun-2023 
 ******************************************
 %chk=C:\Users\Mrs\Desktop\chem\QM\mol+li\mol+li.C1.chk
 ----------------------------------------------
 # opt freq b3lyp/6-31+g(d,p) geom=connectivity
 ----------------------------------------------
 1/14=-1,18=20,19=15,26=3,38=1,57=2/1,3;
 2/9=110,12=2,17=6,18=5,40=1/2;
 3/5=1,6=6,7=111,11=2,16=1,25=1,30=1,71=1,74=-5/1,2,3;
 4//1;
 5/5=2,38=5/2;
 6/7=2,8=2,9=2,10=2,28=1/1;
 7//1,2,3,16;
 1/14=-1,18=20,19=15,26=3/3(2);
 2/9=110/2;
 99//99;
 2/9=110/2;
 3/5=1,6=6,7=111,11=2,16=1,25=1,30=1,71=1,74=-5/1,2,3;
 4/5=5,16=3,69=1/1;
 5/5=2,38=5/2;
 7//1,2,3,16;
 1/14=-1,18=20,19=15,26=3/3(-5);
 2/9=110/2;
 6/7=2,8=2,9=2,10=2,19=2,28=1/1;
 99/9=1/99;
 -----
 M0001
 -----
 Symbolic Z-matrix:
 Charge =  1 Multiplicity = 1
 C                    -1.25448   1.08292   0.37813 
 H                    -1.66291   1.88672   1.00051 
 H                    -1.45581   1.3296   -0.66871 
 C                     0.24623   0.95479   0.64191 
 H                     0.40354   0.82784   1.72121 
 H                     0.71198   1.9129    0.3772 
 C                     1.00211  -0.16573  -0.09731 
 H                     2.07571   0.04502  -0.00988 
 C                     0.65972  -0.25074  -1.58219 
 H                     0.79799   0.72147  -2.06698 
 H                    -0.37427  -0.57159  -1.74762 
 H                     1.31233  -0.96953  -2.09049 
 N                     0.77198  -1.49378   0.54615 
 H                     1.36414  -2.15648   0.00756 
 H                     1.31358  -1.45184   1.43203 
 Li                   -1.0503   -1.73399   0.74704 
 O                    -1.95839  -0.12666   0.69888 
 H                    -2.90314   0.1591    0.71254 
 
 Add virtual bond connecting atoms N13        and Li16       Dist= 3.49D+00.
 Add virtual bond connecting atoms O17        and Li16       Dist= 3.49D+00.

 GradGradGradGradGradGradGradGradGradGradGradGradGradGradGradGradGradGrad
 Berny optimization.
 Initialization pass.
                           ----------------------------
                           !    Initial Parameters    !
                           ! (Angstroms and Degrees)  !
 --------------------------                            --------------------------
 ! Name  Definition              Value          Derivative Info.                !
 --------------------------------------------------------------------------------
 ! R1    R(1,2)                  1.0956         estimate D2E/DX2                !
 ! R2    R(1,3)                  1.0942         estimate D2E/DX2                !
 ! R3    R(1,4)                  1.5291         estimate D2E/DX2                !
 ! R4    R(1,17)                 1.4358         estimate D2E/DX2                !
 ! R5    R(4,5)                  1.0981         estimate D2E/DX2                !
 ! R6    R(4,6)                  1.0977         estimate D2E/DX2                !
 ! R7    R(4,7)                  1.5406         estimate D2E/DX2                !
 ! R8    R(7,8)                  1.0976         estimate D2E/DX2                !
 ! R9    R(7,9)                  1.5262         estimate D2E/DX2                !
 ! R10   R(7,13)                 1.4936         estimate D2E/DX2                !
 ! R11   R(9,10)                 1.0951         estimate D2E/DX2                !
 ! R12   R(9,11)                 1.0952         estimate D2E/DX2                !
 ! R13   R(9,12)                 1.0959         estimate D2E/DX2                !
 ! R14   R(13,14)                1.0392         estimate D2E/DX2                !
 ! R15   R(13,15)                1.0392         estimate D2E/DX2                !
 ! R16   R(13,16)                1.849          estimate D2E/DX2                !
 ! R17   R(16,17)                1.8467         estimate D2E/DX2                !
 ! R18   R(17,18)                0.9871         estimate D2E/DX2                !
 ! A1    A(2,1,3)              108.0287         estimate D2E/DX2                !
 ! A2    A(2,1,4)              109.2302         estimate D2E/DX2                !
 ! A3    A(2,1,17)             107.9638         estimate D2E/DX2                !
 ! A4    A(3,1,4)              111.3781         estimate D2E/DX2                !
 ! A5    A(3,1,17)             108.2671         estimate D2E/DX2                !
 ! A6    A(4,1,17)             111.8413         estimate D2E/DX2                !
 ! A7    A(1,4,5)              108.6538         estimate D2E/DX2                !
 ! A8    A(1,4,6)              107.558          estimate D2E/DX2                !
 ! A9    A(1,4,7)              117.3683         estimate D2E/DX2                !
 ! A10   A(5,4,6)              106.0907         estimate D2E/DX2                !
 ! A11   A(5,4,7)              108.4971         estimate D2E/DX2                !
 ! A12   A(6,4,7)              108.1166         estimate D2E/DX2                !
 ! A13   A(4,7,8)              107.5809         estimate D2E/DX2                !
 ! A14   A(4,7,9)              113.4085         estimate D2E/DX2                !
 ! A15   A(4,7,13)             111.3719         estimate D2E/DX2                !
 ! A16   A(8,7,9)              107.9166         estimate D2E/DX2                !
 ! A17   A(8,7,13)             106.6861         estimate D2E/DX2                !
 ! A18   A(9,7,13)             109.5759         estimate D2E/DX2                !
 ! A19   A(7,9,10)             110.6655         estimate D2E/DX2                !
 ! A20   A(7,9,11)             112.0293         estimate D2E/DX2                !
 ! A21   A(7,9,12)             110.7453         estimate D2E/DX2                !
 ! A22   A(10,9,11)            108.2046         estimate D2E/DX2                !
 ! A23   A(10,9,12)            107.5634         estimate D2E/DX2                !
 ! A24   A(11,9,12)            107.4589         estimate D2E/DX2                !
 ! A25   A(7,13,14)            104.8304         estimate D2E/DX2                !
 ! A26   A(7,13,15)            104.5412         estimate D2E/DX2                !
 ! A27   A(7,13,16)            108.3112         estimate D2E/DX2                !
 ! A28   A(14,13,15)            99.8224         estimate D2E/DX2                !
 ! A29   A(14,13,16)           122.3482         estimate D2E/DX2                !
 ! A30   A(15,13,16)           115.231          estimate D2E/DX2                !
 ! A31   A(13,16,17)           111.6366         estimate D2E/DX2                !
 ! A32   A(1,17,16)            119.8671         estimate D2E/DX2                !
 ! A33   A(1,17,18)            103.2049         estimate D2E/DX2                !
 ! A34   A(16,17,18)           136.2381         estimate D2E/DX2                !
 ! D1    D(2,1,4,5)             54.0272         estimate D2E/DX2                !
 ! D2    D(2,1,4,6)            -60.4062         estimate D2E/DX2                !
 ! D3    D(2,1,4,7)            177.5178         estimate D2E/DX2                !
 ! D4    D(3,1,4,5)            173.2727         estimate D2E/DX2                !
 ! D5    D(3,1,4,6)             58.8393         estimate D2E/DX2                !
 ! D6    D(3,1,4,7)            -63.2368         estimate D2E/DX2                !
 ! D7    D(17,1,4,5)           -65.4262         estimate D2E/DX2                !
 ! D8    D(17,1,4,6)          -179.8596         estimate D2E/DX2                !
 ! D9    D(17,1,4,7)            58.0644         estimate D2E/DX2                !
 ! D10   D(2,1,17,16)         -142.3908         estimate D2E/DX2                !
 ! D11   D(2,1,17,18)           45.6381         estimate D2E/DX2                !
 ! D12   D(3,1,17,16)          100.8887         estimate D2E/DX2                !
 ! D13   D(3,1,17,18)          -71.0824         estimate D2E/DX2                !
 ! D14   D(4,1,17,16)          -22.194          estimate D2E/DX2                !
 ! D15   D(4,1,17,18)          165.8348         estimate D2E/DX2                !
 ! D16   D(1,4,7,8)            165.2776         estimate D2E/DX2                !
 ! D17   D(1,4,7,9)             46.0147         estimate D2E/DX2                !
 ! D18   D(1,4,7,13)           -78.1434         estimate D2E/DX2                !
 ! D19   D(5,4,7,8)            -71.1523         estimate D2E/DX2                !
 ! D20   D(5,4,7,9)            169.5848         estimate D2E/DX2                !
 ! D21   D(5,4,7,13)            45.4267         estimate D2E/DX2                !
 ! D22   D(6,4,7,8)             43.49           estimate D2E/DX2                !
 ! D23   D(6,4,7,9)            -75.7729         estimate D2E/DX2                !
 ! D24   D(6,4,7,13)           160.0691         estimate D2E/DX2                !
 ! D25   D(4,7,9,10)            53.4337         estimate D2E/DX2                !
 ! D26   D(4,7,9,11)           -67.4173         estimate D2E/DX2                !
 ! D27   D(4,7,9,12)           172.6257         estimate D2E/DX2                !
 ! D28   D(8,7,9,10)           -65.6367         estimate D2E/DX2                !
 ! D29   D(8,7,9,11)           173.5123         estimate D2E/DX2                !
 ! D30   D(8,7,9,12)            53.5553         estimate D2E/DX2                !
 ! D31   D(13,7,9,10)          178.5623         estimate D2E/DX2                !
 ! D32   D(13,7,9,11)           57.7113         estimate D2E/DX2                !
 ! D33   D(13,7,9,12)          -62.2456         estimate D2E/DX2                !
 ! D34   D(4,7,13,14)         -176.8268         estimate D2E/DX2                !
 ! D35   D(4,7,13,15)          -72.2905         estimate D2E/DX2                !
 ! D36   D(4,7,13,16)           51.0561         estimate D2E/DX2                !
 ! D37   D(8,7,13,14)          -59.7029         estimate D2E/DX2                !
 ! D38   D(8,7,13,15)           44.8334         estimate D2E/DX2                !
 ! D39   D(8,7,13,16)          168.18           estimate D2E/DX2                !
 ! D40   D(9,7,13,14)           56.8774         estimate D2E/DX2                !
 ! D41   D(9,7,13,15)          161.4137         estimate D2E/DX2                !
 ! D42   D(9,7,13,16)          -75.2397         estimate D2E/DX2                !
 ! D43   D(7,13,16,17)         -20.7506         estimate D2E/DX2                !
 ! D44   D(14,13,16,17)       -142.6706         estimate D2E/DX2                !
 ! D45   D(15,13,16,17)         95.8844         estimate D2E/DX2                !
 ! D46   D(13,16,17,1)           6.7347         estimate D2E/DX2                !
 ! D47   D(13,16,17,18)        175.3967         estimate D2E/DX2                !
 --------------------------------------------------------------------------------
 Trust Radius=3.00D-01 FncErr=1.00D-07 GrdErr=1.00D-06
 Number of steps in this run=    108 maximum allowed number of steps=    108.
 GradGradGradGradGradGradGradGradGradGradGradGradGradGradGradGradGradGrad

                          Input orientation:                          
 ---------------------------------------------------------------------
 Center     Atomic      Atomic             Coordinates (Angstroms)
 Number     Number       Type             X           Y           Z
 ---------------------------------------------------------------------
      1          6           0       -1.254476    1.082916    0.378132
      2          1           0       -1.662912    1.886722    1.000507
      3          1           0       -1.455810    1.329599   -0.668710
      4          6           0        0.246234    0.954788    0.641915
      5          1           0        0.403544    0.827839    1.721214
      6          1           0        0.711975    1.912897    0.377197
      7          6           0        1.002109   -0.165728   -0.097305
      8          1           0        2.075713    0.045016   -0.009877
      9          6           0        0.659719   -0.250743   -1.582186
     10          1           0        0.797989    0.721469   -2.066979
     11          1           0       -0.374272   -0.571590   -1.747615
     12          1           0        1.312328   -0.969529   -2.090493
     13          7           0        0.771982   -1.493784    0.546148
     14          1           0        1.364136   -2.156481    0.007556
     15          1           0        1.313575   -1.451839    1.432035
     16          3           0       -1.050301   -1.733990    0.747044
     17          8           0       -1.958389   -0.126662    0.698878
     18          1           0       -2.903145    0.159101    0.712541
 ---------------------------------------------------------------------
                    Distance matrix (angstroms):
                    1          2          3          4          5
     1  C    0.000000
     2  H    1.095571   0.000000
     3  H    1.094196   1.771881   0.000000
     4  C    1.529094   2.154514   2.180637   0.000000
     5  H    2.148945   2.431233   3.069316   1.098067   0.000000
     6  H    2.134432   2.455462   2.476581   1.097708   1.754669
     7  C    2.622466   3.538373   2.933236   1.540568   2.156959
     8  H    3.509693   4.288365   3.815216   2.144647   2.530937
     9  C    3.047233   4.078440   2.794169   2.563376   3.484454
    10  H    3.212759   4.101624   2.721137   2.774343   3.810159
    11  H    2.833892   3.905901   2.438910   2.902535   3.820494
    12  H    4.110368   5.154077   3.869115   3.507935   4.311095
    13  N    3.282399   4.190821   3.796108   2.506210   2.628015
    14  H    4.181882   5.147471   4.534554   3.366320   3.572888
    15  H    3.759066   4.493516   4.451856   2.748702   2.471582
    16  Li   2.848288   3.680909   3.399173   2.986902   3.102522
    17  O    1.435775   2.057183   2.059995   2.456245   2.744990
    18  H    1.919212   2.146107   2.317908   3.249107   3.521196
                    6          7          8          9         10
     6  H    0.000000
     7  C    2.151747   0.000000
     8  H    2.344907   1.097580   0.000000
     9  C    2.919461   1.526214   2.136509   0.000000
    10  H    2.720459   2.169885   2.514326   1.095143   0.000000
    11  H    3.444915   2.186932   3.066327   1.095193   1.774314
    12  H    3.841654   2.171435   2.437421   1.095870   1.767647
    13  N    3.411396   1.493561   2.092077   2.467299   3.425852
    14  H    4.137848   2.026118   2.313705   2.579791   3.592605
    15  H    3.577157   2.022368   2.213716   3.309938   4.151168
    16  Li   4.067209   2.717491   3.675562   3.248000   4.167035
    17  O    3.375518   3.065939   4.099486   3.474642   3.995862
    18  H    4.032041   4.001546   5.032289   4.257669   4.662658
                   11         12         13         14         15
    11  H    0.000000
    12  H    1.766506   0.000000
    13  N    2.725012   2.742024   0.000000
    14  H    2.935058   2.411088   1.039179   0.000000
    15  H    3.705919   3.555394   1.039171   1.590037   0.000000
    16  Li   2.833992   3.770681   1.848993   2.560243   2.477243
    17  O    2.948341   4.380481   3.057332   3.954398   3.605463
    18  H    3.602981   5.186620   4.033147   4.905977   4.570944
                   16         17         18
    16  Li   0.000000
    17  O    1.846740   0.000000
    18  H    2.649154   0.987122   0.000000
 Stoichiometry    C4H11LiNO(1+)
 Framework group  C1[X(C4H11LiNO)]
 Deg. of freedom    48
 Full point group                 C1      NOp   1
 Largest Abelian subgroup         C1      NOp   1
 Largest concise Abelian subgroup C1      NOp   1
                         Standard orientation:                         
 ---------------------------------------------------------------------
 Center     Atomic      Atomic             Coordinates (Angstroms)
 Number     Number       Type             X           Y           Z
 ---------------------------------------------------------------------
      1          6           0        1.496023   -0.664672    0.059846
      2          1           0        2.381737   -0.969230    0.628205
      3          1           0        1.392822   -1.340673   -0.794343
      4          6           0        0.268553   -0.724762    0.969700
      5          1           0        0.468072   -0.126538    1.868628
      6          1           0        0.160758   -1.762054    1.312292
      7          6           0       -1.078443   -0.275109    0.372403
      8          1           0       -1.872463   -0.624988    1.044563
      9          6           0       -1.349405   -0.851692   -1.014486
     10          1           0       -1.252534   -1.942503   -1.005237
     11          1           0       -0.660310   -0.453365   -1.766770
     12          1           0       -2.367553   -0.612884   -1.342016
     13          7           0       -1.182524    1.214045    0.324337
     14          1           0       -2.137981    1.402333   -0.038350
     15          1           0       -1.309864    1.498822    1.315580
     16          3           0        0.335827    1.876283   -0.497140
     17          8           0        1.725464    0.661302   -0.440754
     18          1           0        2.643418    0.610910   -0.800241
 ---------------------------------------------------------------------
 Rotational constants (GHZ):      3.7234539      2.3925643      2.0003237
 Standard basis: 6-31+G(d,p) (6D, 7F)
 There are   188 symmetry adapted cartesian basis functions of A   symmetry.
 There are   188 symmetry adapted basis functions of A   symmetry.
   188 basis functions,   301 primitive gaussians,   188 cartesian basis functions
    26 alpha electrons       26 beta electrons
       nuclear repulsion energy       293.4215929632 Hartrees.
 NAtoms=   18 NActive=   18 NUniq=   18 SFac= 1.00D+00 NAtFMM=   60 NAOKFM=F Big=F
 Integral buffers will be    262144 words long.
 Raffenetti 2 integral format.
 Two-electron integral symmetry is turned on.
 One-electron integrals computed using PRISM.
 NBasis=   188 RedAO= T EigKep=  2.59D-05  NBF=   188
 NBsUse=   188 1.00D-06 EigRej= -1.00D+00 NBFU=   188
 ExpMin= 7.40D-03 ExpMax= 5.48D+03 ExpMxC= 8.25D+02 IAcc=3 IRadAn=         5 AccDes= 0.00D+00
 Harris functional with IExCor=  402 and IRadAn=       5 diagonalized for initial guess.
 HarFok:  IExCor=  402 AccDes= 0.00D+00 IRadAn=         5 IDoV= 1 UseB2=F ITyADJ=14
 ICtDFT=  3500011 ScaDFX=  1.000000  1.000000  1.000000  1.000000
 FoFCou: FMM=F IPFlag=           0 FMFlag=      100000 FMFlg1=           0
         NFxFlg=           0 DoJE=T BraDBF=F KetDBF=T FulRan=T
         wScrn=  0.000000 ICntrl=     500 IOpCl=  0 I1Cent=   200000004 NGrid=           0
         NMat0=    1 NMatS0=      1 NMatT0=    0 NMatD0=    1 NMtDS0=    0 NMtDT0=    0
 Petite list used in FoFCou.
 Requested convergence on RMS density matrix=1.00D-08 within 128 cycles.
 Requested convergence on MAX density matrix=1.00D-06.
 Requested convergence on             energy=1.00D-06.
 No special actions if energy rises.
 SCF Done:  E(RB3LYP) =  -296.437237468     A.U. after   12 cycles
            NFock= 12  Conv=0.40D-08     -V/T= 2.0095

 **********************************************************************

            Population analysis using the SCF density.

 **********************************************************************

 Orbital symmetries:
       Occupied  (A) (A) (A) (A) (A) (A) (A) (A) (A) (A) (A) (A)
                 (A) (A) (A) (A) (A) (A) (A) (A) (A) (A) (A) (A)
                 (A) (A)
       Virtual   (A) (A) (A) (A) (A) (A) (A) (A) (A) (A) (A) (A)
                 (A) (A) (A) (A) (A) (A) (A) (A) (A) (A) (A) (A)
                 (A) (A) (A) (A) (A) (A) (A) (A) (A) (A) (A) (A)
                 (A) (A) (A) (A) (A) (A) (A) (A) (A) (A) (A) (A)
                 (A) (A) (A) (A) (A) (A) (A) (A) (A) (A) (A) (A)
                 (A) (A) (A) (A) (A) (A) (A) (A) (A) (A) (A) (A)
                 (A) (A) (A) (A) (A) (A) (A) (A) (A) (A) (A) (A)
                 (A) (A) (A) (A) (A) (A) (A) (A) (A) (A) (A) (A)
                 (A) (A) (A) (A) (A) (A) (A) (A) (A) (A) (A) (A)
                 (A) (A) (A) (A) (A) (A) (A) (A) (A) (A) (A) (A)
                 (A) (A) (A) (A) (A) (A) (A) (A) (A) (A) (A) (A)
                 (A) (A) (A) (A) (A) (A) (A) (A) (A) (A) (A) (A)
                 (A) (A) (A) (A) (A) (A) (A) (A) (A) (A) (A) (A)
                 (A) (A) (A) (A) (A) (A)
 The electronic state is 1-A.
 Alpha  occ. eigenvalues --  -19.35986 -14.51859 -10.40181 -10.38501 -10.34823
 Alpha  occ. eigenvalues --  -10.32838  -2.14591  -1.22074  -1.07763  -0.94037
 Alpha  occ. eigenvalues --   -0.87783  -0.80719  -0.72519  -0.70907  -0.65768
 Alpha  occ. eigenvalues --   -0.64873  -0.64204  -0.60042  -0.58049  -0.53868
 Alpha  occ. eigenvalues --   -0.53515  -0.53081  -0.51413  -0.50121  -0.46692
 Alpha  occ. eigenvalues --   -0.46274
 Alpha virt. eigenvalues --   -0.16677  -0.14105  -0.13523  -0.11946  -0.09624
 Alpha virt. eigenvalues --   -0.09470  -0.08397  -0.07807  -0.07343  -0.06464
 Alpha virt. eigenvalues --   -0.05703  -0.05287  -0.04957  -0.04510  -0.03971
 Alpha virt. eigenvalues --   -0.03551  -0.03385  -0.02631  -0.01955  -0.00800
 Alpha virt. eigenvalues --    0.00075   0.01058   0.01675   0.02463   0.02947
 Alpha virt. eigenvalues --    0.03320   0.04259   0.04898   0.05695   0.06067
 Alpha virt. eigenvalues --    0.06847   0.07649   0.08331   0.08556   0.10102
 Alpha virt. eigenvalues --    0.10925   0.11536   0.12226   0.12818   0.14311
 Alpha virt. eigenvalues --    0.15204   0.16174   0.16476   0.17370   0.20338
 Alpha virt. eigenvalues --    0.21620   0.22033   0.23865   0.24995   0.29250
 Alpha virt. eigenvalues --    0.34001   0.37947   0.41619   0.43467   0.47742
 Alpha virt. eigenvalues --    0.48167   0.50397   0.53180   0.53910   0.55784
 Alpha virt. eigenvalues --    0.58608   0.59629   0.60968   0.64343   0.70968
 Alpha virt. eigenvalues --    0.73575   0.75671   0.77529   0.78791   0.80365
 Alpha virt. eigenvalues --    0.81788   0.83473   0.85425   0.85721   0.86646
 Alpha virt. eigenvalues --    0.89509   0.91147   0.91814   0.93059   0.97082
 Alpha virt. eigenvalues --    0.98951   1.00551   1.02422   1.06971   1.10333
 Alpha virt. eigenvalues --    1.11476   1.12119   1.17595   1.23529   1.30106
 Alpha virt. eigenvalues --    1.33306   1.35870   1.37728   1.46417   1.49952
 Alpha virt. eigenvalues --    1.50980   1.53006   1.57898   1.60606   1.64316
 Alpha virt. eigenvalues --    1.67147   1.71861   1.75010   1.75505   1.78939
 Alpha virt. eigenvalues --    1.80534   1.81974   1.85216   1.89868   1.92450
 Alpha virt. eigenvalues --    1.94090   1.97038   1.98903   1.99560   2.01981
 Alpha virt. eigenvalues --    2.04310   2.09647   2.12330   2.16810   2.18085
 Alpha virt. eigenvalues --    2.21447   2.23296   2.25686   2.27392   2.28589
 Alpha virt. eigenvalues --    2.35748   2.38592   2.43923   2.45205   2.48104
 Alpha virt. eigenvalues --    2.53426   2.56224   2.59269   2.59854   2.61292
 Alpha virt. eigenvalues --    2.62235   2.64431   2.68576   2.71578   2.73880
 Alpha virt. eigenvalues --    2.75617   2.78496   2.81783   2.84448   2.95346
 Alpha virt. eigenvalues --    3.12491   3.16561   3.17619   3.20298   3.25681
 Alpha virt. eigenvalues --    3.30126   3.34320   3.34806   3.36333   3.38579
 Alpha virt. eigenvalues --    3.41174   4.07627   4.17898   4.24677   4.40595
 Alpha virt. eigenvalues --    4.49698   4.58057
          Condensed to atoms (all electrons):
               1          2          3          4          5          6
     1  C    5.083240   0.414331   0.443555   0.152901  -0.036758  -0.021359
     2  H    0.414331   0.542191  -0.041180  -0.029731  -0.006417  -0.002367
     3  H    0.443555  -0.041180   0.557475  -0.088345   0.004560  -0.001719
     4  C    0.152901  -0.029731  -0.088345   5.767868   0.391492   0.367633
     5  H   -0.036758  -0.006417   0.004560   0.391492   0.544460  -0.020388
     6  H   -0.021359  -0.002367  -0.001719   0.367633  -0.020388   0.501870
     7  C    0.015033   0.009332   0.015342  -0.274945  -0.033554  -0.024950
     8  H    0.000270  -0.000072   0.000017  -0.009611  -0.002303  -0.005272
     9  C    0.005980  -0.004950  -0.000017   0.069810  -0.003656  -0.002269
    10  H   -0.007878   0.000006  -0.000005   0.019135   0.000067   0.000997
    11  H    0.009738   0.000054  -0.001036  -0.004820  -0.000039  -0.000036
    12  H   -0.004205  -0.000001   0.000013   0.015026  -0.000122   0.000037
    13  N   -0.009539   0.001307  -0.003154   0.077739  -0.008795   0.005875
    14  H   -0.002154   0.000003   0.000009   0.020304   0.000115  -0.000165
    15  H    0.004195  -0.000008   0.000008  -0.039119   0.003056   0.000016
    16  Li  -0.024964   0.000913   0.001724  -0.049622   0.004442   0.002845
    17  O    0.175855  -0.050276  -0.053140  -0.128570   0.001744   0.007700
    18  H   -0.012092  -0.005900  -0.003760   0.021034  -0.000289  -0.000217
               7          8          9         10         11         12
     1  C    0.015033   0.000270   0.005980  -0.007878   0.009738  -0.004205
     2  H    0.009332  -0.000072  -0.004950   0.000006   0.000054  -0.000001
     3  H    0.015342   0.000017  -0.000017  -0.000005  -0.001036   0.000013
     4  C   -0.274945  -0.009611   0.069810   0.019135  -0.004820   0.015026
     5  H   -0.033554  -0.002303  -0.003656   0.000067  -0.000039  -0.000122
     6  H   -0.024950  -0.005272  -0.002269   0.000997  -0.000036   0.000037
     7  C    6.707022   0.305251  -0.248352  -0.079334  -0.138364  -0.057377
     8  H    0.305251   0.573898   0.013489  -0.002392   0.005055  -0.005368
     9  C   -0.248352   0.013489   5.364923   0.422638   0.450518   0.407494
    10  H   -0.079334  -0.002392   0.422638   0.495140  -0.024079  -0.019649
    11  H   -0.138364   0.005055   0.450518  -0.024079   0.556145  -0.029105
    12  H   -0.057377  -0.005368   0.407494  -0.019649  -0.029105   0.520067
    13  N   -0.409131  -0.043712   0.108582   0.009038   0.016368  -0.000780
    14  H   -0.029904  -0.004847  -0.012934   0.000037  -0.001044   0.003944
    15  H    0.026001  -0.006768  -0.001729  -0.000194  -0.000088  -0.000015
    16  Li   0.064456   0.016155  -0.007394  -0.001322   0.009641   0.000432
    17  O    0.001591   0.000307  -0.009937   0.000134   0.003274  -0.000359
    18  H   -0.003268   0.000003   0.001014  -0.000003   0.000048  -0.000002
              13         14         15         16         17         18
     1  C   -0.009539  -0.002154   0.004195  -0.024964   0.175855  -0.012092
     2  H    0.001307   0.000003  -0.000008   0.000913  -0.050276  -0.005900
     3  H   -0.003154   0.000009   0.000008   0.001724  -0.053140  -0.003760
     4  C    0.077739   0.020304  -0.039119  -0.049622  -0.128570   0.021034
     5  H   -0.008795   0.000115   0.003056   0.004442   0.001744  -0.000289
     6  H    0.005875  -0.000165   0.000016   0.002845   0.007700  -0.000217
     7  C   -0.409131  -0.029904   0.026001   0.064456   0.001591  -0.003268
     8  H   -0.043712  -0.004847  -0.006768   0.016155   0.000307   0.000003
     9  C    0.108582  -0.012934  -0.001729  -0.007394  -0.009937   0.001014
    10  H    0.009038   0.000037  -0.000194  -0.001322   0.000134  -0.000003
    11  H    0.016368  -0.001044  -0.000088   0.009641   0.003274   0.000048
    12  H   -0.000780   0.003944  -0.000015   0.000432  -0.000359  -0.000002
    13  N    7.043659   0.353300   0.330063   0.096701   0.016729  -0.001244
    14  H    0.353300   0.380809  -0.027279  -0.018001   0.000736   0.000003
    15  H    0.330063  -0.027279   0.385490  -0.008531  -0.000366  -0.000004
    16  Li   0.096701  -0.018001  -0.008531   2.302642   0.155585  -0.029370
    17  O    0.016729   0.000736  -0.000366   0.155585   8.098662   0.269889
    18  H   -0.001244   0.000003  -0.000004  -0.029370   0.269889   0.353094
 Mulliken charges:
               1
     1  C   -0.186150
     2  H    0.172765
     3  H    0.169652
     4  C   -0.278179
     5  H    0.162384
     6  H    0.191768
     7  C    0.155151
     8  H    0.165900
     9  C   -0.553210
    10  H    0.187664
    11  H    0.147771
    12  H    0.169968
    13  N   -0.583005
    14  H    0.337067
    15  H    0.335275
    16  Li   0.483670
    17  O   -0.489557
    18  H    0.411066
 Sum of Mulliken charges =   1.00000
 Mulliken charges with hydrogens summed into heavy atoms:
               1
     1  C    0.156267
     4  C    0.075973
     7  C    0.321051
     9  C   -0.047807
    13  N    0.089337
    16  Li   0.483670
    17  O   -0.078491
 Electronic spatial extent (au):  <R**2>=            703.0074
 Charge=              1.0000 electrons
 Dipole moment (field-independent basis, Debye):
    X=              0.9434    Y=              3.8241    Z=             -0.6853  Tot=              3.9979
 Quadrupole moment (field-independent basis, Debye-Ang):
   XX=            -23.6137   YY=            -25.0309   ZZ=            -34.8865
   XY=             -0.8082   XZ=             -3.5463   YZ=             -2.5204
 Traceless Quadrupole moment (field-independent basis, Debye-Ang):
   XX=              4.2300   YY=              2.8128   ZZ=             -7.0428
   XY=             -0.8082   XZ=             -3.5463   YZ=             -2.5204
 Octapole moment (field-independent basis, Debye-Ang**2):
  XXX=             20.6706  YYY=             31.0812  ZZZ=              0.8581  XYY=              3.1853
  XXY=              9.0195  XXZ=             -6.9423  XZZ=              1.7312  YZZ=              7.0158
  YYZ=             -5.4725  XYZ=             -5.4086
 Hexadecapole moment (field-independent basis, Debye-Ang**3):
 XXXX=           -340.0608 YYYY=           -181.3397 ZZZZ=           -177.0246 XXXY=             -6.0217
 XXXZ=            -28.2180 YYYX=              9.7075 YYYZ=            -16.7934 ZZZX=            -12.3907
 ZZZY=             -1.0654 XXYY=           -105.1294 XXZZ=            -94.6110 YYZZ=            -59.6028
 XXYZ=             -4.4172 YYXZ=             -8.4909 ZZXY=             -0.9472
 N-N= 2.934215929632D+02 E-N=-1.267263396443D+03  KE= 2.936365152359D+02
 Calling FoFJK, ICntrl=      2127 FMM=F ISym2X=0 I1Cent= 0 IOpClX= 0 NMat=1 NMatS=1 NMatT=0.
 ***** Axes restored to original set *****
 -------------------------------------------------------------------
 Center     Atomic                   Forces (Hartrees/Bohr)
 Number     Number              X              Y              Z
 -------------------------------------------------------------------
      1        6           0.012992709    0.016205745   -0.004282856
      2        1           0.002036835    0.000455798   -0.000317349
      3        1           0.000991924    0.000498188   -0.001090899
      4        6          -0.001322815   -0.003226676    0.004988279
      5        1           0.000351458    0.001740908    0.000868137
      6        1          -0.002026777   -0.001035305   -0.000158278
      7        6           0.003679543    0.009405779   -0.009123987
      8        1          -0.001029390    0.004045597   -0.000561251
      9        6           0.001665200   -0.001272120   -0.002247899
     10        1          -0.000317337   -0.001210404    0.000070027
     11        1          -0.001109081    0.000648834   -0.000734227
     12        1          -0.000237875    0.000858039   -0.000397114
     13        7           0.037736734   -0.009105443    0.006562108
     14        1          -0.012978676    0.003040129    0.004336396
     15        1          -0.012176151   -0.002820587   -0.004902656
     16        3          -0.015666582   -0.003265952    0.002292475
     17        8          -0.026729757    0.001792769    0.002652266
     18        1           0.014140038   -0.016755301    0.002046827
 -------------------------------------------------------------------
 Cartesian Forces:  Max     0.037736734 RMS     0.008732342

 GradGradGradGradGradGradGradGradGradGradGradGradGradGradGradGradGradGrad
 Berny optimization.
 FormGI is forming the generalized inverse of G from B-inverse, IUseBI=4.
 Internal  Forces:  Max     0.021115654 RMS     0.004423090
 Search for a local minimum.
 Step number   1 out of a maximum of  108
 All quantities printed in internal units (Hartrees-Bohrs-Radians)
 Mixed Optimization -- RFO/linear search
 Second derivative matrix not updated -- first step.
 ITU=  0
     Eigenvalues ---    0.00419   0.00613   0.00724   0.01183   0.01359
     Eigenvalues ---    0.02968   0.03477   0.04337   0.04609   0.04846
     Eigenvalues ---    0.04901   0.05206   0.05448   0.05614   0.05890
     Eigenvalues ---    0.06950   0.08695   0.09098   0.09408   0.09557
     Eigenvalues ---    0.10562   0.12393   0.12767   0.13219   0.14931
     Eigenvalues ---    0.15814   0.15995   0.16000   0.16000   0.16000
     Eigenvalues ---    0.18833   0.22537   0.27606   0.29028   0.29776
     Eigenvalues ---    0.32176   0.33897   0.33937   0.33951   0.34143
     Eigenvalues ---    0.34177   0.34219   0.34225   0.34332   0.39254
     Eigenvalues ---    0.41414   0.41415   0.50026
 RFO step:  Lambda=-8.45227176D-03 EMin= 4.19181982D-03
 Linear search not attempted -- first point.
 Iteration  1 RMS(Cart)=  0.02700179 RMS(Int)=  0.00064933
 Iteration  2 RMS(Cart)=  0.00060015 RMS(Int)=  0.00030975
 Iteration  3 RMS(Cart)=  0.00000048 RMS(Int)=  0.00030975
 Variable       Old X    -DE/DX   Delta X   Delta X   Delta X     New X
                                 (Linear)    (Quad)   (Total)
    R1        2.07033  -0.00061   0.00000  -0.00173  -0.00173   2.06860
    R2        2.06773   0.00098   0.00000   0.00278   0.00278   2.07051
    R3        2.88957  -0.00086   0.00000  -0.00312  -0.00306   2.88651
    R4        2.71322   0.02112   0.00000   0.05179   0.05181   2.76503
    R5        2.07505   0.00070   0.00000   0.00202   0.00202   2.07707
    R6        2.07437  -0.00173   0.00000  -0.00496  -0.00496   2.06941
    R7        2.91125   0.00296   0.00000   0.00891   0.00885   2.92010
    R8        2.07413  -0.00028   0.00000  -0.00079  -0.00079   2.07333
    R9        2.88413   0.00326   0.00000   0.01065   0.01065   2.89478
   R10        2.82242   0.01425   0.00000   0.04164   0.04167   2.86409
   R11        2.06952  -0.00115   0.00000  -0.00328  -0.00328   2.06625
   R12        2.06961   0.00096   0.00000   0.00275   0.00275   2.07236
   R13        2.07089  -0.00052   0.00000  -0.00148  -0.00148   2.06942
   R14        1.96376  -0.01159   0.00000  -0.02742  -0.02742   1.93635
   R15        1.96375  -0.01064   0.00000  -0.02518  -0.02518   1.93857
   R16        3.49409   0.01384   0.00000   0.10516   0.10512   3.59921
   R17        3.48983  -0.00097   0.00000  -0.00521  -0.00521   3.48462
   R18        1.86539  -0.01835   0.00000  -0.03607  -0.03607   1.82932
    A1        1.88546   0.00048   0.00000   0.00161   0.00145   1.88691
    A2        1.90643  -0.00112   0.00000  -0.01443  -0.01451   1.89192
    A3        1.88432   0.00057   0.00000   0.01127   0.01128   1.89561
    A4        1.94391  -0.00163   0.00000  -0.00750  -0.00749   1.93642
    A5        1.88962   0.00075   0.00000   0.00839   0.00836   1.89798
    A6        1.95200   0.00101   0.00000   0.00142   0.00146   1.95346
    A7        1.89637   0.00005   0.00000   0.01060   0.01020   1.90657
    A8        1.87724  -0.00203   0.00000  -0.02703  -0.02701   1.85023
    A9        2.04846   0.00138   0.00000   0.01143   0.01107   2.05954
   A10        1.85163  -0.00003   0.00000  -0.00556  -0.00542   1.84621
   A11        1.89363   0.00097   0.00000   0.01924   0.01890   1.91253
   A12        1.88699  -0.00049   0.00000  -0.01095  -0.01089   1.87610
   A13        1.87764  -0.00119   0.00000  -0.01841  -0.01820   1.85944
   A14        1.97935   0.00196   0.00000   0.01077   0.01072   1.99007
   A15        1.94381  -0.00194   0.00000  -0.02057  -0.02049   1.92331
   A16        1.88350  -0.00083   0.00000  -0.00329  -0.00342   1.88008
   A17        1.86202   0.00218   0.00000   0.02944   0.02929   1.89132
   A18        1.91246  -0.00014   0.00000   0.00353   0.00353   1.91599
   A19        1.93148   0.00023   0.00000  -0.00085  -0.00084   1.93063
   A20        1.95528   0.00069   0.00000   0.00485   0.00482   1.96010
   A21        1.93287   0.00077   0.00000   0.00599   0.00596   1.93883
   A22        1.88853  -0.00083   0.00000  -0.00755  -0.00754   1.88098
   A23        1.87734  -0.00071   0.00000  -0.00566  -0.00565   1.87168
   A24        1.87551  -0.00025   0.00000   0.00262   0.00257   1.87808
   A25        1.82964   0.00383   0.00000   0.03583   0.03518   1.86482
   A26        1.82459   0.00569   0.00000   0.04634   0.04597   1.87056
   A27        1.89039  -0.00039   0.00000  -0.01015  -0.00997   1.88042
   A28        1.74223   0.00214   0.00000   0.03443   0.03221   1.77444
   A29        2.13538  -0.00408   0.00000  -0.04248  -0.04244   2.09294
   A30        2.01116  -0.00498   0.00000  -0.04362  -0.04368   1.96748
   A31        1.94843   0.00076   0.00000   0.00146   0.00133   1.94976
   A32        2.09208  -0.00206   0.00000  -0.01048  -0.01049   2.08159
   A33        1.80127   0.01219   0.00000   0.07344   0.07349   1.87475
   A34        2.37780  -0.01003   0.00000  -0.06132  -0.06140   2.31641
    D1        0.94295  -0.00017   0.00000  -0.00357  -0.00366   0.93929
    D2       -1.05429   0.00089   0.00000   0.01152   0.01149  -1.04279
    D3        3.09827   0.00222   0.00000   0.03992   0.03990   3.13817
    D4        3.02418  -0.00131   0.00000  -0.01551  -0.01554   3.00864
    D5        1.02694  -0.00025   0.00000  -0.00042  -0.00039   1.02655
    D6       -1.10369   0.00108   0.00000   0.02798   0.02802  -1.07567
    D7       -1.14190  -0.00078   0.00000  -0.00903  -0.00908  -1.15099
    D8       -3.13914   0.00027   0.00000   0.00606   0.00607  -3.13307
    D9        1.01341   0.00161   0.00000   0.03446   0.03448   1.04789
   D10       -2.48519   0.00099   0.00000   0.00674   0.00695  -2.47823
   D11        0.79654   0.00133   0.00000   0.00257   0.00236   0.79890
   D12        1.76084  -0.00027   0.00000  -0.00560  -0.00545   1.75539
   D13       -1.24062   0.00007   0.00000  -0.00977  -0.01004  -1.25066
   D14       -0.38736   0.00060   0.00000  -0.00289  -0.00276  -0.39012
   D15        2.89436   0.00094   0.00000  -0.00706  -0.00735   2.88701
   D16        2.88464  -0.00209   0.00000  -0.04296  -0.04320   2.84144
   D17        0.80311  -0.00145   0.00000  -0.03298  -0.03308   0.77003
   D18       -1.36386  -0.00124   0.00000  -0.02973  -0.02973  -1.39359
   D19       -1.24184  -0.00017   0.00000  -0.00390  -0.00393  -1.24577
   D20        2.95981   0.00047   0.00000   0.00607   0.00619   2.96600
   D21        0.79285   0.00068   0.00000   0.00933   0.00954   0.80238
   D22        0.75904   0.00003   0.00000  -0.00622  -0.00637   0.75267
   D23       -1.32249   0.00068   0.00000   0.00376   0.00374  -1.31875
   D24        2.79373   0.00089   0.00000   0.00701   0.00709   2.80082
   D25        0.93259   0.00014   0.00000   0.00441   0.00444   0.93703
   D26       -1.17665   0.00057   0.00000   0.01133   0.01137  -1.16529
   D27        3.01289  -0.00010   0.00000   0.00066   0.00067   3.01356
   D28       -1.14558   0.00099   0.00000   0.02305   0.02298  -1.12260
   D29        3.02836   0.00142   0.00000   0.02997   0.02991   3.05827
   D30        0.93472   0.00074   0.00000   0.01929   0.01921   0.95393
   D31        3.11650  -0.00108   0.00000  -0.01196  -0.01191   3.10459
   D32        1.00725  -0.00064   0.00000  -0.00504  -0.00498   1.00227
   D33       -1.08639  -0.00132   0.00000  -0.01571  -0.01568  -1.10207
   D34       -3.08621  -0.00235   0.00000  -0.03660  -0.03717  -3.12338
   D35       -1.26171   0.00320   0.00000   0.02870   0.02932  -1.23239
   D36        0.89110   0.00034   0.00000  -0.00179  -0.00179   0.88931
   D37       -1.04201  -0.00353   0.00000  -0.05229  -0.05307  -1.09508
   D38        0.78249   0.00202   0.00000   0.01302   0.01342   0.79591
   D39        2.93529  -0.00083   0.00000  -0.01748  -0.01768   2.91761
   D40        0.99270  -0.00338   0.00000  -0.03823  -0.03878   0.95392
   D41        2.81720   0.00217   0.00000   0.02708   0.02771   2.84491
   D42       -1.31318  -0.00068   0.00000  -0.00342  -0.00339  -1.31657
   D43       -0.36217  -0.00116   0.00000  -0.00148  -0.00164  -0.36381
   D44       -2.49007  -0.00302   0.00000  -0.00937  -0.00920  -2.49927
   D45        1.67350   0.00272   0.00000   0.02346   0.02294   1.69644
   D46        0.11754   0.00012   0.00000  -0.00303  -0.00287   0.11468
   D47        3.06125   0.00231   0.00000   0.01919   0.01861   3.07986
         Item               Value     Threshold  Converged?
 Maximum Force            0.021116     0.000450     NO 
 RMS     Force            0.004423     0.000300     NO 
 Maximum Displacement     0.108115     0.001800     NO 
 RMS     Displacement     0.026851     0.001200     NO 
 Predicted change in Energy=-4.496567D-03
 GradGradGradGradGradGradGradGradGradGradGradGradGradGradGradGradGradGrad

                          Input orientation:                          
 ---------------------------------------------------------------------
 Center     Atomic      Atomic             Coordinates (Angstroms)
 Number     Number       Type             X           Y           Z
 ---------------------------------------------------------------------
      1          6           0       -1.249415    1.093931    0.377454
      2          1           0       -1.634338    1.913051    0.993205
      3          1           0       -1.435078    1.341587   -0.673586
      4          6           0        0.246860    0.949139    0.648334
      5          1           0        0.410009    0.837178    1.729514
      6          1           0        0.697257    1.909754    0.377099
      7          6           0        1.017683   -0.155551   -0.108830
      8          1           0        2.082695    0.095484   -0.028243
      9          6           0        0.671903   -0.248273   -1.598261
     10          1           0        0.793835    0.724160   -2.083085
     11          1           0       -0.360127   -0.578963   -1.766167
     12          1           0        1.333422   -0.952871   -2.113189
     13          7           0        0.792337   -1.499483    0.554599
     14          1           0        1.337213   -2.187078    0.025190
     15          1           0        1.292832   -1.483052    1.449919
     16          3           0       -1.085865   -1.734804    0.765707
     17          8           0       -1.985449   -0.126097    0.710195
     18          1           0       -2.925775    0.101889    0.740144
 ---------------------------------------------------------------------
                    Distance matrix (angstroms):
                    1          2          3          4          5
     1  C    0.000000
     2  H    1.094656   0.000000
     3  H    1.095668   1.773264   0.000000
     4  C    1.527475   2.141721   2.174949   0.000000
     5  H    2.155847   2.424666   3.071427   1.099137   0.000000
     6  H    2.110711   2.411624   2.444096   1.095083   1.749845
     7  C    2.633896   3.539323   2.928551   1.545252   2.175842
     8  H    3.502063   4.261835   3.787344   2.134660   2.537263
     9  C    3.065359   4.087268   2.796793   2.581016   3.510111
    10  H    3.219604   4.095490   2.708497   2.794717   3.833537
    11  H    2.860859   3.930379   2.457186   2.921189   3.849461
    12  H    4.130829   5.164377   3.873189   3.524808   4.338587
    13  N    3.305438   4.210286   3.813331   2.510394   2.643214
    14  H    4.192821   5.155407   4.541515   3.378318   3.593126
    15  H    3.775452   4.506709   4.464230   2.766252   2.498203
    16  Li   2.859935   3.695865   3.414337   2.998914   3.127563
    17  O    1.463192   2.088420   2.090898   2.478541   2.775811
    18  H    1.981382   2.238785   2.399513   3.285100   3.556256
                    6          7          8          9         10
     6  H    0.000000
     7  C    2.145760   0.000000
     8  H    2.318474   1.097161   0.000000
     9  C    2.925709   1.531851   2.138565   0.000000
    10  H    2.732667   2.172943   2.505747   1.093410   0.000000
    11  H    3.450415   2.196453   3.072888   1.096648   1.769236
    12  H    3.847190   2.180107   2.451011   1.095088   1.761957
    13  N    3.415178   1.515610   2.132756   2.492958   3.449922
    14  H    4.161420   2.060865   2.401809   2.614803   3.635297
    15  H    3.607879   2.065833   2.302309   3.346885   4.195581
    16  Li   4.075947   2.771962   3.744340   3.299678   4.206589
    17  O    3.384162   3.112952   4.140554   3.522133   4.031100
    18  H    4.065285   4.042017   5.067074   4.305118   4.710981
                   11         12         13         14         15
    11  H    0.000000
    12  H    1.768712   0.000000
    13  N    2.749816   2.776446   0.000000
    14  H    2.945498   2.468997   1.024671   0.000000
    15  H    3.727313   3.602566   1.025848   1.589804   0.000000
    16  Li   2.876291   3.840887   1.904622   2.573757   2.487915
    17  O    2.996519   4.435083   3.102659   3.969503   3.624313
    18  H    3.650713   5.234004   4.052552   4.891175   4.562068
                   16         17         18
    16  Li   0.000000
    17  O    1.843982   0.000000
    18  H    2.599877   0.968033   0.000000
 Stoichiometry    C4H11LiNO(1+)
 Framework group  C1[X(C4H11LiNO)]
 Deg. of freedom    48
 Full point group                 C1      NOp   1
 Largest Abelian subgroup         C1      NOp   1
 Largest concise Abelian subgroup C1      NOp   1
                         Standard orientation:                         
 ---------------------------------------------------------------------
 Center     Atomic      Atomic             Coordinates (Angstroms)
 Number     Number       Type             X           Y           Z
 ---------------------------------------------------------------------
      1          6           0        1.484512   -0.698403    0.067557
      2          1           0        2.348449   -1.035400    0.649208
      3          1           0        1.356508   -1.381770   -0.779269
      4          6           0        0.255727   -0.716761    0.974712
      5          1           0        0.465771   -0.131247    1.880890
      6          1           0        0.142852   -1.753313    1.309415
      7          6           0       -1.096750   -0.272967    0.373333
      8          1           0       -1.876338   -0.643741    1.050484
      9          6           0       -1.377893   -0.845618   -1.019361
     10          1           0       -1.284494   -1.935018   -1.013758
     11          1           0       -0.688475   -0.454438   -1.777199
     12          1           0       -2.396463   -0.608873   -1.344451
     13          7           0       -1.179933    1.239798    0.332189
     14          1           0       -2.098120    1.476256   -0.056363
     15          1           0       -1.274657    1.564425    1.300697
     16          3           0        0.402301    1.885349   -0.508873
     17          8           0        1.762979    0.642318   -0.448054
     18          1           0        2.660192    0.632439   -0.811370
 ---------------------------------------------------------------------
 Rotational constants (GHZ):      3.6626766      2.3510824      1.9633948
 Standard basis: 6-31+G(d,p) (6D, 7F)
 There are   188 symmetry adapted cartesian basis functions of A   symmetry.
 There are   188 symmetry adapted basis functions of A   symmetry.
   188 basis functions,   301 primitive gaussians,   188 cartesian basis functions
    26 alpha electrons       26 beta electrons
       nuclear repulsion energy       291.4108526886 Hartrees.
 NAtoms=   18 NActive=   18 NUniq=   18 SFac= 1.00D+00 NAtFMM=   60 NAOKFM=F Big=F
 Integral buffers will be    262144 words long.
 Raffenetti 2 integral format.
 Two-electron integral symmetry is turned on.
 One-electron integrals computed using PRISM.
 NBasis=   188 RedAO= T EigKep=  2.64D-05  NBF=   188
 NBsUse=   188 1.00D-06 EigRej= -1.00D+00 NBFU=   188
 Initial guess from the checkpoint file:  "C:\Users\Mrs\Desktop\chem\QM\mol+li\mol+li.C1.chk"
 B after Tr=     0.000000    0.000000    0.000000
         Rot=    0.999966    0.001721    0.000361    0.008044 Ang=   0.94 deg.
 ExpMin= 7.40D-03 ExpMax= 5.48D+03 ExpMxC= 8.25D+02 IAcc=3 IRadAn=         5 AccDes= 0.00D+00
 Harris functional with IExCor=  402 and IRadAn=       5 diagonalized for initial guess.
 HarFok:  IExCor=  402 AccDes= 0.00D+00 IRadAn=         5 IDoV= 1 UseB2=F ITyADJ=14
 ICtDFT=  3500011 ScaDFX=  1.000000  1.000000  1.000000  1.000000
 FoFCou: FMM=F IPFlag=           0 FMFlag=      100000 FMFlg1=           0
         NFxFlg=           0 DoJE=T BraDBF=F KetDBF=T FulRan=T
         wScrn=  0.000000 ICntrl=     500 IOpCl=  0 I1Cent=   200000004 NGrid=           0
         NMat0=    1 NMatS0=      1 NMatT0=    0 NMatD0=    1 NMtDS0=    0 NMtDT0=    0
 Petite list used in FoFCou.
 Requested convergence on RMS density matrix=1.00D-08 within 128 cycles.
 Requested convergence on MAX density matrix=1.00D-06.
 Requested convergence on             energy=1.00D-06.
 No special actions if energy rises.
 SCF Done:  E(RB3LYP) =  -296.442275956     A.U. after   11 cycles
            NFock= 11  Conv=0.20D-08     -V/T= 2.0098
 Calling FoFJK, ICntrl=      2127 FMM=F ISym2X=0 I1Cent= 0 IOpClX= 0 NMat=1 NMatS=1 NMatT=0.
 ***** Axes restored to original set *****
 -------------------------------------------------------------------
 Center     Atomic                   Forces (Hartrees/Bohr)
 Number     Number              X              Y              Z
 -------------------------------------------------------------------
      1        6           0.003825830    0.005892201   -0.001714082
      2        1          -0.001017874   -0.001469783    0.000255041
      3        1          -0.000812197   -0.001892736    0.000509239
      4        6          -0.001769235   -0.004219211    0.001791080
      5        1           0.000394134    0.000036176   -0.000610594
      6        1          -0.000435487    0.000930810   -0.000174313
      7        6          -0.000126262    0.000999032   -0.001364436
      8        1          -0.000266974   -0.000567792    0.000664438
      9        6          -0.000298031   -0.001985930    0.001210847
     10        1           0.000210315    0.000291072    0.000174040
     11        1          -0.000101134    0.000394879    0.000002027
     12        1           0.000079299    0.000176399    0.000365371
     13        7           0.016006251    0.002593208   -0.001598140
     14        1          -0.004457523   -0.000530913   -0.001216636
     15        1          -0.004016292    0.001016156    0.000312570
     16        3          -0.007653201   -0.001481096    0.001074463
     17        8           0.000201845    0.003502799   -0.000302877
     18        1           0.000236537   -0.003685271    0.000621962
 -------------------------------------------------------------------
 Cartesian Forces:  Max     0.016006251 RMS     0.003006889

 GradGradGradGradGradGradGradGradGradGradGradGradGradGradGradGradGradGrad
 Berny optimization.
 Using GEDIIS/GDIIS optimizer.
 FormGI is forming the generalized inverse of G from B-inverse, IUseBI=4.
 Internal  Forces:  Max     0.006041267 RMS     0.001101480
 Search for a local minimum.
 Step number   2 out of a maximum of  108
 All quantities printed in internal units (Hartrees-Bohrs-Radians)
 Mixed Optimization -- RFO/linear search
 Update second derivatives using D2CorX and points    1    2
 DE= -5.04D-03 DEPred=-4.50D-03 R= 1.12D+00
 TightC=F SS=  1.41D+00  RLast= 2.44D-01 DXNew= 5.0454D-01 7.3073D-01
 Trust test= 1.12D+00 RLast= 2.44D-01 DXMaxT set to 5.05D-01
 ITU=  1  0
 Use linear search instead of GDIIS.
     Eigenvalues ---    0.00419   0.00616   0.00723   0.01184   0.01342
     Eigenvalues ---    0.02938   0.03482   0.04407   0.04659   0.04742
     Eigenvalues ---    0.04925   0.05087   0.05397   0.05590   0.06011
     Eigenvalues ---    0.06301   0.08671   0.09204   0.09327   0.09540
     Eigenvalues ---    0.10591   0.11723   0.12458   0.13096   0.14727
     Eigenvalues ---    0.15349   0.16000   0.16000   0.16006   0.16123
     Eigenvalues ---    0.18684   0.22671   0.27626   0.29028   0.29887
     Eigenvalues ---    0.33177   0.33903   0.33948   0.34007   0.34140
     Eigenvalues ---    0.34168   0.34221   0.34243   0.34381   0.40521
     Eigenvalues ---    0.41362   0.41586   0.50621
 RFO step:  Lambda=-1.18237477D-03 EMin= 4.18944095D-03
 Quartic linear search produced a step of  0.28236.
 Iteration  1 RMS(Cart)=  0.01540300 RMS(Int)=  0.00034130
 Iteration  2 RMS(Cart)=  0.00031016 RMS(Int)=  0.00019671
 Iteration  3 RMS(Cart)=  0.00000007 RMS(Int)=  0.00019671
 Variable       Old X    -DE/DX   Delta X   Delta X   Delta X     New X
                                 (Linear)    (Quad)   (Total)
    R1        2.06860  -0.00060  -0.00049  -0.00196  -0.00245   2.06615
    R2        2.07051  -0.00077   0.00079  -0.00332  -0.00254   2.06798
    R3        2.88651  -0.00024  -0.00086  -0.00170  -0.00256   2.88395
    R4        2.76503   0.00095   0.01463  -0.00596   0.00868   2.77371
    R5        2.07707  -0.00055   0.00057  -0.00238  -0.00181   2.07526
    R6        2.06941   0.00068  -0.00140   0.00335   0.00195   2.07136
    R7        2.92010   0.00008   0.00250  -0.00105   0.00150   2.92160
    R8        2.07333  -0.00034  -0.00022  -0.00115  -0.00138   2.07196
    R9        2.89478  -0.00162   0.00301  -0.00867  -0.00566   2.88912
   R10        2.86409  -0.00231   0.01176  -0.01519  -0.00343   2.86066
   R11        2.06625   0.00020  -0.00092   0.00128   0.00035   2.06660
   R12        2.07236  -0.00003   0.00078  -0.00055   0.00023   2.07259
   R13        2.06942  -0.00023  -0.00042  -0.00064  -0.00105   2.06836
   R14        1.93635  -0.00139  -0.00774   0.00011  -0.00763   1.92871
   R15        1.93857  -0.00167  -0.00711  -0.00112  -0.00822   1.93035
   R16        3.59921   0.00604   0.02968   0.04778   0.07744   3.67666
   R17        3.48462  -0.00085  -0.00147  -0.00757  -0.00906   3.47556
   R18        1.82932  -0.00107  -0.01019   0.00304  -0.00715   1.82217
    A1        1.88691   0.00030   0.00041   0.01282   0.01289   1.89980
    A2        1.89192   0.00117  -0.00410   0.01641   0.01223   1.90415
    A3        1.89561  -0.00098   0.00319  -0.01673  -0.01354   1.88206
    A4        1.93642   0.00088  -0.00212   0.01523   0.01286   1.94928
    A5        1.89798  -0.00087   0.00236  -0.01606  -0.01359   1.88439
    A6        1.95346  -0.00050   0.00041  -0.01134  -0.01094   1.94252
    A7        1.90657   0.00034   0.00288   0.00545   0.00815   1.91472
    A8        1.85023  -0.00116  -0.00763  -0.01025  -0.01775   1.83248
    A9        2.05954   0.00098   0.00313   0.00733   0.01011   2.06965
   A10        1.84621   0.00013  -0.00153  -0.00114  -0.00262   1.84359
   A11        1.91253  -0.00054   0.00534  -0.00285   0.00235   1.91489
   A12        1.87610   0.00015  -0.00308   0.00024  -0.00279   1.87331
   A13        1.85944   0.00014  -0.00514   0.00821   0.00305   1.86249
   A14        1.99007   0.00036   0.00303   0.00433   0.00722   1.99729
   A15        1.92331   0.00005  -0.00579  -0.00124  -0.00688   1.91644
   A16        1.88008   0.00033  -0.00097   0.00945   0.00842   1.88850
   A17        1.89132  -0.00022   0.00827  -0.01177  -0.00352   1.88780
   A18        1.91599  -0.00064   0.00100  -0.00908  -0.00813   1.90786
   A19        1.93063  -0.00049  -0.00024  -0.00507  -0.00532   1.92532
   A20        1.96010   0.00022   0.00136   0.00190   0.00326   1.96336
   A21        1.93883  -0.00037   0.00168  -0.00344  -0.00177   1.93706
   A22        1.88098   0.00009  -0.00213   0.00112  -0.00100   1.87998
   A23        1.87168   0.00029  -0.00160   0.00141  -0.00020   1.87149
   A24        1.87808   0.00030   0.00073   0.00442   0.00513   1.88321
   A25        1.86482   0.00130   0.00993   0.01112   0.02056   1.88538
   A26        1.87056   0.00067   0.01298   0.00023   0.01280   1.88336
   A27        1.88042   0.00009  -0.00282  -0.00281  -0.00558   1.87484
   A28        1.77444   0.00190   0.00909   0.03358   0.04134   1.81578
   A29        2.09294  -0.00180  -0.01198  -0.02142  -0.03331   2.05963
   A30        1.96748  -0.00177  -0.01233  -0.01705  -0.02940   1.93808
   A31        1.94976  -0.00121   0.00038  -0.00380  -0.00359   1.94616
   A32        2.08159   0.00076  -0.00296   0.00387   0.00086   2.08245
   A33        1.87475   0.00287   0.02075   0.01309   0.03386   1.90861
   A34        2.31641  -0.00361  -0.01734  -0.01784  -0.03516   2.28125
    D1        0.93929  -0.00086  -0.00103   0.00363   0.00247   0.94176
    D2       -1.04279  -0.00059   0.00325   0.00760   0.01074  -1.03205
    D3        3.13817  -0.00051   0.01127   0.01060   0.02187  -3.12314
    D4        3.00864   0.00074  -0.00439   0.03836   0.03406   3.04270
    D5        1.02655   0.00101  -0.00011   0.04232   0.04234   1.06889
    D6       -1.07567   0.00109   0.00791   0.04533   0.05347  -1.02220
    D7       -1.15099  -0.00011  -0.00257   0.02061   0.01803  -1.13296
    D8       -3.13307   0.00017   0.00171   0.02457   0.02631  -3.10676
    D9        1.04789   0.00025   0.00973   0.02758   0.03744   1.08533
   D10       -2.47823  -0.00046   0.00196  -0.01780  -0.01572  -2.49395
   D11        0.79890  -0.00026   0.00067  -0.01053  -0.00987   0.78903
   D12        1.75539   0.00021  -0.00154  -0.01485  -0.01624   1.73916
   D13       -1.25066   0.00041  -0.00283  -0.00758  -0.01039  -1.26105
   D14       -0.39012   0.00004  -0.00078  -0.01537  -0.01595  -0.40607
   D15        2.88701   0.00024  -0.00208  -0.00809  -0.01010   2.87691
   D16        2.84144  -0.00035  -0.01220  -0.00342  -0.01570   2.82574
   D17        0.77003  -0.00106  -0.00934  -0.02316  -0.03255   0.73747
   D18       -1.39359  -0.00052  -0.00839  -0.01339  -0.02175  -1.41534
   D19       -1.24577   0.00044  -0.00111   0.00764   0.00653  -1.23924
   D20        2.96600  -0.00027   0.00175  -0.01210  -0.01032   2.95568
   D21        0.80238   0.00027   0.00269  -0.00233   0.00048   0.80286
   D22        0.75267   0.00040  -0.00180   0.00498   0.00315   0.75582
   D23       -1.31875  -0.00031   0.00106  -0.01476  -0.01370  -1.33245
   D24        2.80082   0.00023   0.00200  -0.00499  -0.00290   2.79792
   D25        0.93703   0.00038   0.00125   0.02890   0.03015   0.96718
   D26       -1.16529   0.00046   0.00321   0.02972   0.03294  -1.13235
   D27        3.01356   0.00019   0.00019   0.02515   0.02535   3.03890
   D28       -1.12260  -0.00022   0.00649   0.00968   0.01612  -1.10647
   D29        3.05827  -0.00014   0.00845   0.01050   0.01891   3.07718
   D30        0.95393  -0.00042   0.00542   0.00594   0.01132   0.96525
   D31        3.10459   0.00021  -0.00336   0.02335   0.02002   3.12460
   D32        1.00227   0.00029  -0.00141   0.02417   0.02280   1.02507
   D33       -1.10207   0.00002  -0.00443   0.01960   0.01521  -1.08686
   D34       -3.12338  -0.00173  -0.01050  -0.03950  -0.05039   3.10941
   D35       -1.23239   0.00125   0.00828   0.00322   0.01186  -1.22053
   D36        0.88931  -0.00043  -0.00050  -0.01849  -0.01901   0.87030
   D37       -1.09508  -0.00167  -0.01498  -0.03709  -0.05250  -1.14758
   D38        0.79591   0.00132   0.00379   0.00564   0.00975   0.80566
   D39        2.91761  -0.00036  -0.00499  -0.01608  -0.02112   2.89649
   D40        0.95392  -0.00177  -0.01095  -0.03762  -0.04895   0.90497
   D41        2.84491   0.00122   0.00783   0.00510   0.01330   2.85821
   D42       -1.31657  -0.00046  -0.00096  -0.01662  -0.01758  -1.33415
   D43       -0.36381   0.00002  -0.00046   0.01440   0.01386  -0.34995
   D44       -2.49927  -0.00050  -0.00260   0.01754   0.01496  -2.48431
   D45        1.69644  -0.00014   0.00648   0.00289   0.00921   1.70565
   D46        0.11468   0.00000  -0.00081   0.00111   0.00046   0.11514
   D47        3.07986   0.00049   0.00525  -0.00473   0.00058   3.08044
         Item               Value     Threshold  Converged?
 Maximum Force            0.006041     0.000450     NO 
 RMS     Force            0.001101     0.000300     NO 
 Maximum Displacement     0.046737     0.001800     NO 
 RMS     Displacement     0.015437     0.001200     NO 
 Predicted change in Energy=-8.047216D-04
 GradGradGradGradGradGradGradGradGradGradGradGradGradGradGradGradGradGrad

                          Input orientation:                          
 ---------------------------------------------------------------------
 Center     Atomic      Atomic             Coordinates (Angstroms)
 Number     Number       Type             X           Y           Z
 ---------------------------------------------------------------------
      1          6           0       -1.248057    1.102296    0.371137
      2          1           0       -1.640696    1.922453    0.978272
      3          1           0       -1.439252    1.320516   -0.684028
      4          6           0        0.243308    0.942173    0.652632
      5          1           0        0.405885    0.825430    1.732419
      6          1           0        0.686905    1.909521    0.390080
      7          6           0        1.027856   -0.147516   -0.113732
      8          1           0        2.090319    0.108983   -0.026870
      9          6           0        0.681123   -0.249748   -1.599237
     10          1           0        0.814956    0.719410   -2.087883
     11          1           0       -0.354906   -0.568012   -1.767337
     12          1           0        1.338575   -0.962387   -2.107073
     13          7           0        0.812023   -1.493508    0.544521
     14          1           0        1.315193   -2.195386    0.000575
     15          1           0        1.295306   -1.484180    1.444412
     16          3           0       -1.105009   -1.724370    0.783407
     17          8           0       -1.990734   -0.113609    0.723829
     18          1           0       -2.932793    0.087932    0.764876
 ---------------------------------------------------------------------
                    Distance matrix (angstroms):
                    1          2          3          4          5
     1  C    0.000000
     2  H    1.093360   0.000000
     3  H    1.094327   1.779368   0.000000
     4  C    1.526121   2.148595   2.181929   0.000000
     5  H    2.159923   2.441453   3.080400   1.098181   0.000000
     6  H    2.096675   2.400804   2.453809   1.096117   1.748170
     7  C    2.641383   3.549424   2.926940   1.546044   2.177555
     8  H    3.505685   4.268425   3.789135   2.137142   2.538840
     9  C    3.071177   4.093024   2.792727   2.585202   3.511651
    10  H    3.232554   4.108387   2.722791   2.808349   3.843603
    11  H    2.856697   3.923524   2.432263   2.914578   3.843016
    12  H    4.134623   5.168918   3.866914   3.527454   4.336807
    13  N    3.318462   4.227619   3.807402   2.503532   2.636954
    14  H    4.193122   5.162341   4.518542   3.379111   3.598813
    15  H    3.782918   4.521343   4.458070   2.760581   2.491649
    16  Li   2.860152   3.691104   3.396530   2.990905   3.112058
    17  O    1.467784   2.081543   2.083965   2.471981   2.764568
    18  H    2.005568   2.254001   2.418523   3.290888   3.553423
                    6          7          8          9         10
     6  H    0.000000
     7  C    2.145104   0.000000
     8  H    2.320636   1.096432   0.000000
     9  C    2.935958   1.528855   2.141695   0.000000
    10  H    2.751919   2.166601   2.499389   1.093597   0.000000
    11  H    3.446445   2.196191   3.076795   1.096770   1.768836
    12  H    3.861126   2.175768   2.457681   1.094530   1.761530
    13  N    3.408829   1.513795   2.128029   2.481889   3.438978
    14  H    4.170937   2.071087   2.431396   2.597489   3.620488
    15  H    3.605409   2.070269   2.309737   3.341383   4.190901
    16  Li   4.070727   2.800078   3.771982   3.322916   4.231151
    17  O    3.372565   3.132817   4.155489   3.543160   4.058515
    18  H    4.069505   4.063758   5.085170   4.331679   4.752118
                   11         12         13         14         15
    11  H    0.000000
    12  H    1.771674   0.000000
    13  N    2.750082   2.755049   0.000000
    14  H    2.926275   2.441928   1.020632   0.000000
    15  H    3.725304   3.589872   1.021495   1.609619   0.000000
    16  Li   2.899330   3.860906   1.945604   2.586902   2.501225
    17  O    3.014685   4.451823   3.129173   3.973166   3.632597
    18  H    3.672584   5.253175   4.071015   4.882938   4.561812
                   16         17         18
    16  Li   0.000000
    17  O    1.839187   0.000000
    18  H    2.574020   0.964250   0.000000
 Stoichiometry    C4H11LiNO(1+)
 Framework group  C1[X(C4H11LiNO)]
 Deg. of freedom    48
 Full point group                 C1      NOp   1
 Largest Abelian subgroup         C1      NOp   1
 Largest concise Abelian subgroup C1      NOp   1
                         Standard orientation:                         
 ---------------------------------------------------------------------
 Center     Atomic      Atomic             Coordinates (Angstroms)
 Number     Number       Type             X           Y           Z
 ---------------------------------------------------------------------
      1          6           0        1.480530   -0.714504    0.064667
      2          1           0        2.346723   -1.058154    0.636550
      3          1           0        1.339665   -1.376134   -0.795538
      4          6           0        0.254733   -0.702667    0.973693
      5          1           0        0.467323   -0.111347    1.874330
      6          1           0        0.147351   -1.737602    1.318441
      7          6           0       -1.104920   -0.272723    0.376413
      8          1           0       -1.879611   -0.637300    1.061321
      9          6           0       -1.392148   -0.838898   -1.014394
     10          1           0       -1.318140   -1.929927   -1.002852
     11          1           0       -0.693015   -0.464979   -1.772221
     12          1           0       -2.406538   -0.586199   -1.338665
     13          7           0       -1.189686    1.237962    0.329269
     14          1           0       -2.082019    1.491059   -0.096610
     15          1           0       -1.267937    1.578281    1.289224
     16          3           0        0.440561    1.886877   -0.511312
     17          8           0        1.781201    0.629678   -0.442444
     18          1           0        2.673541    0.641260   -0.807647
 ---------------------------------------------------------------------
 Rotational constants (GHZ):      3.6791233      2.3299034      1.9493144
 Standard basis: 6-31+G(d,p) (6D, 7F)
 There are   188 symmetry adapted cartesian basis functions of A   symmetry.
 There are   188 symmetry adapted basis functions of A   symmetry.
   188 basis functions,   301 primitive gaussians,   188 cartesian basis functions
    26 alpha electrons       26 beta electrons
       nuclear repulsion energy       291.1053963629 Hartrees.
 NAtoms=   18 NActive=   18 NUniq=   18 SFac= 1.00D+00 NAtFMM=   60 NAOKFM=F Big=F
 Integral buffers will be    262144 words long.
 Raffenetti 2 integral format.
 Two-electron integral symmetry is turned on.
 One-electron integrals computed using PRISM.
 NBasis=   188 RedAO= T EigKep=  2.64D-05  NBF=   188
 NBsUse=   188 1.00D-06 EigRej= -1.00D+00 NBFU=   188
 Initial guess from the checkpoint file:  "C:\Users\Mrs\Desktop\chem\QM\mol+li\mol+li.C1.chk"
 B after Tr=     0.000000    0.000000    0.000000
         Rot=    0.999994    0.001359    0.000115    0.003084 Ang=   0.39 deg.
 ExpMin= 7.40D-03 ExpMax= 5.48D+03 ExpMxC= 8.25D+02 IAcc=3 IRadAn=         5 AccDes= 0.00D+00
 Harris functional with IExCor=  402 and IRadAn=       5 diagonalized for initial guess.
 HarFok:  IExCor=  402 AccDes= 0.00D+00 IRadAn=         5 IDoV= 1 UseB2=F ITyADJ=14
 ICtDFT=  3500011 ScaDFX=  1.000000  1.000000  1.000000  1.000000
 FoFCou: FMM=F IPFlag=           0 FMFlag=      100000 FMFlg1=           0
         NFxFlg=           0 DoJE=T BraDBF=F KetDBF=T FulRan=T
         wScrn=  0.000000 ICntrl=     500 IOpCl=  0 I1Cent=   200000004 NGrid=           0
         NMat0=    1 NMatS0=      1 NMatT0=    0 NMatD0=    1 NMtDS0=    0 NMtDT0=    0
 Petite list used in FoFCou.
 Requested convergence on RMS density matrix=1.00D-08 within 128 cycles.
 Requested convergence on MAX density matrix=1.00D-06.
 Requested convergence on             energy=1.00D-06.
 No special actions if energy rises.
 SCF Done:  E(RB3LYP) =  -296.443194827     A.U. after   10 cycles
            NFock= 10  Conv=0.21D-08     -V/T= 2.0098
 Calling FoFJK, ICntrl=      2127 FMM=F ISym2X=0 I1Cent= 0 IOpClX= 0 NMat=1 NMatS=1 NMatT=0.
 ***** Axes restored to original set *****
 -------------------------------------------------------------------
 Center     Atomic                   Forces (Hartrees/Bohr)
 Number     Number              X              Y              Z
 -------------------------------------------------------------------
      1        6          -0.000593403   -0.000223624    0.000323365
      2        1           0.000115280    0.000059315   -0.000194717
      3        1           0.000273699   -0.000109422    0.000228754
      4        6          -0.000342579    0.000467015   -0.001098792
      5        1          -0.000238657   -0.000165871   -0.000187568
      6        1           0.000525123    0.000475801    0.000251514
      7        6          -0.001603889   -0.002534895    0.001137022
      8        1           0.000021690    0.000235064   -0.000029979
      9        6          -0.000002101    0.000520139    0.000292088
     10        1           0.000055491    0.000124116   -0.000352411
     11        1           0.000245057    0.000030123    0.000223332
     12        1           0.000046056   -0.000055309    0.000023088
     13        7           0.003239923    0.003669919   -0.001531108
     14        1          -0.000493697   -0.000962999   -0.000571950
     15        1          -0.000277092   -0.000341324    0.000961889
     16        3          -0.002915141   -0.000932769    0.000518935
     17        8           0.004508790   -0.000544422   -0.000057493
     18        1          -0.002564549    0.000289142    0.000064031
 -------------------------------------------------------------------
 Cartesian Forces:  Max     0.004508790 RMS     0.001215247

 GradGradGradGradGradGradGradGradGradGradGradGradGradGradGradGradGradGrad
 Berny optimization.
 Using GEDIIS/GDIIS optimizer.
 FormGI is forming the generalized inverse of G from B-inverse, IUseBI=4.
 Internal  Forces:  Max     0.002571478 RMS     0.000491109
 Search for a local minimum.
 Step number   3 out of a maximum of  108
 All quantities printed in internal units (Hartrees-Bohrs-Radians)
 Mixed Optimization -- En-DIIS/RFO-DIIS
 Update second derivatives using D2CorX and points    1    2    3
 DE= -9.19D-04 DEPred=-8.05D-04 R= 1.14D+00
 TightC=F SS=  1.41D+00  RLast= 2.03D-01 DXNew= 8.4853D-01 6.0893D-01
 Trust test= 1.14D+00 RLast= 2.03D-01 DXMaxT set to 6.09D-01
 ITU=  1  1  0
 Use linear search instead of GDIIS.
     Eigenvalues ---    0.00418   0.00611   0.00699   0.01185   0.01338
     Eigenvalues ---    0.03008   0.03506   0.04351   0.04537   0.04794
     Eigenvalues ---    0.04942   0.05025   0.05392   0.05616   0.05674
     Eigenvalues ---    0.06102   0.08708   0.09139   0.09310   0.09543
     Eigenvalues ---    0.10313   0.11409   0.12461   0.13138   0.14829
     Eigenvalues ---    0.15373   0.16000   0.16002   0.16078   0.16121
     Eigenvalues ---    0.18563   0.22749   0.27648   0.29034   0.29898
     Eigenvalues ---    0.33162   0.33903   0.33954   0.33978   0.34144
     Eigenvalues ---    0.34167   0.34222   0.34250   0.34351   0.40555
     Eigenvalues ---    0.41418   0.42353   0.52818
 RFO step:  Lambda=-1.55221608D-04 EMin= 4.18251427D-03
 Quartic linear search produced a step of  0.17212.
 Iteration  1 RMS(Cart)=  0.00906270 RMS(Int)=  0.00007020
 Iteration  2 RMS(Cart)=  0.00007147 RMS(Int)=  0.00003791
 Iteration  3 RMS(Cart)=  0.00000000 RMS(Int)=  0.00003791
 Variable       Old X    -DE/DX   Delta X   Delta X   Delta X     New X
                                 (Linear)    (Quad)   (Total)
    R1        2.06615  -0.00011  -0.00042  -0.00024  -0.00066   2.06549
    R2        2.06798  -0.00029  -0.00044  -0.00067  -0.00111   2.06687
    R3        2.88395  -0.00066  -0.00044  -0.00258  -0.00303   2.88093
    R4        2.77371  -0.00023   0.00149   0.00051   0.00202   2.77573
    R5        2.07526  -0.00020  -0.00031  -0.00048  -0.00079   2.07447
    R6        2.07136   0.00057   0.00034   0.00162   0.00196   2.07332
    R7        2.92160  -0.00035   0.00026  -0.00114  -0.00088   2.92072
    R8        2.07196   0.00007  -0.00024   0.00033   0.00009   2.07205
    R9        2.88912  -0.00031  -0.00097  -0.00042  -0.00140   2.88772
   R10        2.86066  -0.00159  -0.00059  -0.00387  -0.00448   2.85618
   R11        2.06660   0.00027   0.00006   0.00078   0.00084   2.06744
   R12        2.07259  -0.00028   0.00004  -0.00086  -0.00082   2.07177
   R13        2.06836   0.00006  -0.00018   0.00021   0.00003   2.06839
   R14        1.92871   0.00072  -0.00131   0.00161   0.00030   1.92901
   R15        1.93035   0.00071  -0.00142   0.00172   0.00030   1.93065
   R16        3.67666   0.00190   0.01333   0.01585   0.02918   3.70584
   R17        3.47556  -0.00063  -0.00156  -0.00531  -0.00686   3.46870
   R18        1.82217   0.00257  -0.00123   0.00520   0.00397   1.82614
    A1        1.89980  -0.00001   0.00222  -0.00071   0.00145   1.90125
    A2        1.90415  -0.00006   0.00210  -0.00159   0.00052   1.90467
    A3        1.88206   0.00023  -0.00233   0.00362   0.00129   1.88336
    A4        1.94928  -0.00002   0.00221  -0.00290  -0.00074   1.94854
    A5        1.88439   0.00013  -0.00234   0.00265   0.00034   1.88472
    A6        1.94252  -0.00025  -0.00188  -0.00082  -0.00272   1.93980
    A7        1.91472  -0.00018   0.00140  -0.00526  -0.00386   1.91086
    A8        1.83248   0.00033  -0.00306   0.00767   0.00464   1.83712
    A9        2.06965  -0.00009   0.00174  -0.00187  -0.00022   2.06943
   A10        1.84359  -0.00007  -0.00045  -0.00062  -0.00106   1.84253
   A11        1.91489   0.00001   0.00040  -0.00244  -0.00204   1.91285
   A12        1.87331   0.00003  -0.00048   0.00344   0.00296   1.87628
   A13        1.86249  -0.00008   0.00052  -0.00431  -0.00380   1.85869
   A14        1.99729  -0.00030   0.00124  -0.00161  -0.00039   1.99690
   A15        1.91644   0.00032  -0.00118   0.00492   0.00373   1.92017
   A16        1.88850  -0.00001   0.00145  -0.00393  -0.00250   1.88600
   A17        1.88780  -0.00013  -0.00061   0.00079   0.00020   1.88800
   A18        1.90786   0.00020  -0.00140   0.00389   0.00249   1.91035
   A19        1.92532   0.00043  -0.00092   0.00405   0.00314   1.92845
   A20        1.96336  -0.00031   0.00056  -0.00247  -0.00191   1.96145
   A21        1.93706  -0.00012  -0.00030  -0.00094  -0.00124   1.93582
   A22        1.87998   0.00000  -0.00017   0.00061   0.00044   1.88042
   A23        1.87149  -0.00013  -0.00003  -0.00074  -0.00078   1.87071
   A24        1.88321   0.00013   0.00088  -0.00049   0.00039   1.88360
   A25        1.88538   0.00036   0.00354   0.00377   0.00725   1.89263
[...]
 1)]|NImag=0||0.47909278,-0.08051800,0.49095567,0.00907492,0.04730342,0
 .60716547,-0.08807610,0.08067907,0.05620452,0.09688456,0.07364882,-0.1
 9341120,-0.10894362,-0.07402389,0.21960881,0.05672164,-0.11561311,-0.1
 3973988,-0.06046852,0.11695477,0.14037350,-0.06215108,0.01254544,-0.05
 136025,0.00435341,-0.00097746,0.01235299,0.06745955,0.01119374,-0.0546
 3543,0.03023013,-0.00447153,0.00647557,-0.02294219,-0.00335830,0.06603
 843,-0.04862450,0.03611573,-0.30260286,-0.00431967,0.00201747,-0.01532
 848,0.05004871,-0.04446981,0.32295289,-0.18204151,0.01948140,-0.024090
 38,-0.01348882,0.00186417,-0.00452841,-0.00556574,0.00128680,-0.002165
 98,0.48196909,0.02983944,-0.08329201,0.00087040,0.02462514,-0.00042523
 ,0.00674074,0.00470886,0.00123958,-0.00008369,0.03120838,0.54098646,-0
 .03291018,0.00033084,-0.09268559,0.01872975,-0.00154215,0.00426746,-0.
 03260410,0.00321949,-0.00323541,0.00937545,-0.04776184,0.56636173,-0.0
 0778050,0.00632537,-0.03609013,0.00131762,-0.00024286,0.00029522,-0.00
 657697,0.00022992,-0.00054514,-0.05481803,0.00518767,-0.03413090,0.060
 62093,-0.00109267,-0.00207825,0.00302024,0.00007242,-0.00018420,0.0005
 6320,0.00097319,0.00109872,-0.00045834,0.00552606,-0.05081947,0.026816
 12,-0.00944477,0.05485251,-0.00087853,0.00210671,-0.00630379,-0.000366
 03,0.00004039,0.00083563,-0.00081711,0.00033794,0.00126334,-0.03582532
 ,0.02731536,-0.29680803,0.03902139,-0.02923403,0.32165741,-0.01100658,
 -0.02882724,0.00926017,0.00068710,0.00011437,0.00076194,0.00099486,0.0
 0012864,-0.00065765,-0.09165368,-0.09526801,0.02593913,0.00193610,0.00
 481290,-0.00107441,0.10411362,-0.00081198,-0.00005154,-0.00023619,-0.0
 0015180,0.00066258,-0.00021811,-0.00023970,0.00030420,-0.00008310,-0.0
 9470014,-0.24958619,0.05701878,-0.00094889,-0.00262592,0.00089074,0.10
 025891,0.27113480,-0.00290407,-0.00611183,0.00012392,0.00041786,0.0000
 9243,0.00018079,0.00037248,-0.00019360,0.00008393,0.02663470,0.0578910
 5,-0.06226895,0.01363547,0.02793770,-0.00766883,-0.03026416,-0.0614315
 0,0.06486210,-0.01927833,0.02641701,0.01869921,-0.00523705,0.00028290,
 -0.00181370,0.00145765,-0.00048060,0.00028961,-0.11031945,0.03204726,0
 .02292327,0.00270773,-0.00337210,-0.00224890,0.00550124,-0.00938191,-0
 .00695898,0.59063296,0.00690349,0.00342825,0.00228051,-0.00212967,0.00
 109028,-0.00012276,-0.00066116,-0.00040476,-0.00046312,0.03200480,-0.1
 1687267,-0.03587680,-0.00281769,0.00036817,0.00262570,0.01414187,-0.01
 985934,-0.01457892,0.02563449,0.44210280,0.00346084,0.00667445,0.00549
 817,-0.00273317,0.00025718,-0.00021568,-0.00086042,0.00095113,-0.00038
 964,0.01900328,-0.02832292,-0.10425223,0.01574784,-0.02546586,-0.01631
 442,-0.00447332,0.00708459,0.00325039,0.02310171,0.02821496,0.48534617
 ,0.00051854,0.00276628,0.00262778,-0.00106071,-0.00002660,-0.00022341,
 0.00023558,-0.00012592,-0.00006665,-0.01734627,-0.00088353,-0.00193374
 ,0.00021754,-0.00028372,0.00043516,0.00056332,0.00028390,-0.00042719,-
 0.29417442,-0.05352230,-0.02372122,0.31248806,0.00122718,-0.00345787,-
 0.00345596,0.00131437,-0.00019561,0.00021067,-0.00021722,0.00015290,0.
 00008400,0.02465418,0.00198933,0.00190365,-0.00057514,0.00048630,-0.00
 016253,0.00087334,0.00072036,0.00043468,-0.05018053,-0.05799590,-0.006
 61628,0.05774319,0.07759291,0.00067825,-0.00252005,-0.00183884,0.00081
 555,-0.00012147,0.00025311,0.00007752,-0.00015873,0.00004048,0.0175000
 4,0.00052736,0.00223911,-0.00017652,0.00073906,0.00022701,-0.00046568,
 0.00045405,0.00092323,-0.02547242,-0.00750580,-0.05291823,0.02427348,0
 .00380186,0.06160620,0.00159294,0.00066150,0.00145421,0.00000681,-0.00
 017413,0.00002246,0.00004263,0.00038033,0.00022694,0.00490398,0.000108
 81,0.01902826,-0.00163028,0.00346149,0.00291485,-0.00008881,-0.0001238
 0,-0.00036750,-0.09113483,-0.00243024,-0.02867543,-0.00624804,-0.00209
 062,-0.03309393,0.56945096,-0.00021310,-0.00054799,0.00034938,-0.00031
 710,0.00021449,-0.00037099,0.00050742,0.00027567,-0.00062861,-0.004948
 35,0.00040060,-0.02403487,0.00254275,-0.00359026,-0.00240583,-0.000348
 15,0.00028894,-0.00015087,-0.00483885,-0.08042132,-0.01783856,-0.00102
 646,0.00078076,-0.00798960,-0.00268968,0.58433591,0.00008979,0.0011743
 2,0.00097139,-0.00084053,-0.00000245,-0.00005821,0.00013654,-0.0000190
 0,-0.00011384,0.00061665,-0.00629857,-0.01971657,0.00068347,-0.0011218
 6,0.00051319,-0.00023710,0.00065393,0.00055424,-0.02741683,-0.00549142
 ,-0.18102938,-0.00190300,-0.00143020,-0.00607854,-0.02049686,-0.007953
 44,0.48086720,-0.00001369,-0.00092634,0.00053545,-0.00000655,0.0000929
 1,-0.00017444,-0.00034848,0.00006511,-0.00002324,0.00034172,-0.0000938
 7,0.00040657,-0.00013356,0.00005345,-0.00005665,0.00017142,0.00001495,
 0.00006745,-0.00068167,0.00714597,-0.00205054,0.00001865,0.00024788,0.
 00030764,-0.05142068,-0.03296805,0.01539233,0.05165830,0.00001270,-0.0
 0011970,0.00018420,-0.00004719,0.00001778,-0.00005534,-0.00012132,0.00
 007578,-0.00013254,0.00026655,0.00021899,-0.00031197,-0.00000801,0.000
 15717,0.00008817,-0.00005887,0.00024350,-0.00006074,0.00090800,0.00261
 499,-0.00158856,0.00021522,0.00026482,0.00043409,-0.03276157,-0.262017
 10,0.10591645,0.03516815,0.28119302,0.00051300,0.00023203,-0.00027817,
 0.00004346,-0.00003639,0.00010631,0.00043827,-0.00004902,-0.00008348,0
 .00021177,0.00064903,0.00111096,-0.00038899,-0.00003886,0.00032723,0.0
 0001463,-0.00071851,-0.00054825,0.00624796,0.02901609,-0.01052183,-0.0
 0029403,-0.00020230,0.00101668,0.01483516,0.10383114,-0.09920246,-0.01
 624983,-0.11435907,0.10730704,-0.00079135,0.00012543,-0.00004478,0.000
 22388,-0.00004008,0.00021839,0.00003562,0.00028937,0.00085200,0.000225
 15,0.00061836,0.00009619,0.00011043,-0.00019132,-0.00017892,-0.0000038
 9,0.00010462,0.00014990,-0.00659404,-0.00247206,-0.00099990,0.00137454
 ,0.00006445,-0.00158595,-0.28059858,-0.07098385,-0.03610137,-0.0034045
 6,-0.00021950,-0.00015772,0.30582576,-0.00020955,0.00025588,-0.0010723
 6,0.00000567,-0.00010574,0.00034423,0.00069807,-0.00082293,-0.00018383
 ,-0.00082517,-0.00017633,-0.00012019,0.00027979,0.00003760,0.00004605,
 0.00000558,0.00004421,-0.00001942,-0.00155749,-0.00230438,0.00088035,0
 .00028305,0.00068156,-0.00039256,-0.06977409,-0.06842832,-0.01143911,-
 0.02773316,-0.00690676,-0.00538280,0.07755236,0.06958167,0.00022830,-0
 .00106848,-0.00016877,0.00005531,0.00002425,0.00016455,0.00062039,-0.0
 0058459,-0.00025466,-0.00039428,0.00088008,0.00122077,0.00019609,0.000
 14265,0.00011494,-0.00000959,0.00005661,0.00000785,-0.03387371,-0.0101
 8283,-0.00459794,-0.00105392,-0.00021688,-0.00642782,-0.03615369,-0.01
 094007,-0.05479788,0.01419776,0.00269223,0.00210196,0.04098159,0.01298
 222,0.05835967,-0.00029127,0.00016405,-0.00054292,0.00007893,-0.000048
 22,0.00024204,0.00023315,-0.00030280,0.00032762,0.00013524,0.00016886,
 -0.00237222,0.00045837,-0.00038931,-0.00036726,-0.00005330,0.00022475,
 0.00015655,0.00493335,-0.00653054,-0.00474532,0.00085807,-0.00050547,0
 .00042690,-0.14767102,0.10734152,0.07324048,0.00270853,-0.00357788,-0.
 00274733,-0.01766679,0.02048667,0.01335191,0.15588583,-0.00037782,-0.0
 0025843,0.00022003,0.00002623,0.00001821,-0.00001784,-0.00017443,-0.00
 005763,-0.00002984,-0.00049647,0.00101772,-0.00027719,0.00028476,0.000
 04639,-0.00020592,0.00000847,0.00025043,0.00025086,-0.00004284,-0.0026
 1929,0.00074361,-0.00027371,-0.00001416,-0.00027235,0.10649315,-0.1616
 5779,-0.07874899,0.01805978,-0.01790582,-0.01347049,-0.00665296,0.0069
 5955,0.00559673,-0.11658023,0.17222878,-0.00106400,0.00034548,-0.00024
 929,0.00011377,-0.00001653,0.00016000,0.00022065,-0.00001968,0.0003207
 3,-0.00247012,0.00177161,-0.00568139,0.00091752,-0.00152507,-0.0009120
 8,-0.00011874,-0.00010258,0.00004860,0.02068183,-0.02225189,-0.0158350
 6,-0.00005196,0.00020300,0.00139846,0.07223570,-0.07779438,-0.10098430
 ,-0.00976051,0.00912967,0.00698954,-0.00290596,0.00421642,0.00201660,-
 0.07793296,0.08593482,0.11121670,-0.00045567,-0.00223527,-0.00045396,0
 .00038691,0.00006375,0.00008855,0.00008141,0.00032324,-0.00009393,0.00
 603877,0.01452580,-0.00682857,0.00042589,-0.00098966,-0.00080468,-0.00
 107345,0.00262974,0.00118311,-0.07940918,0.00190903,-0.00191376,0.0005
 0621,-0.03255462,0.01654263,0.00229420,0.00810436,-0.00407405,0.000537
 86,0.00047391,-0.00206617,0.00139493,0.00074978,0.00127255,0.00007769,
 -0.00056050,0.00013531,0.36003169,-0.00316654,-0.00066033,-0.00008186,
 0.00036065,0.00032395,-0.00017520,0.00023621,0.00002523,0.00003277,-0.
 00402055,-0.03313160,0.01148652,-0.00071092,0.00214695,0.00136473,0.00
 385457,-0.00327893,-0.00217392,-0.04288664,-0.14275712,0.02134001,-0.0
 0435522,-0.02264867,0.01325910,0.00095648,-0.00505485,0.00476300,0.000
 43239,0.00131935,-0.00064791,0.00107355,0.00098269,-0.00040696,-0.0006
 5507,0.00123876,-0.00106924,-0.10762225,0.47906069,-0.00110335,0.00042
 622,-0.00067266,-0.00003438,0.00006881,0.00009483,0.00038844,-0.000329
 29,0.00021920,-0.00458507,-0.01547047,0.00629656,-0.00025879,-0.000038
 78,0.00232559,0.00240103,-0.00376583,-0.00103156,0.01996775,0.02086959
 ,-0.10407932,0.00181207,0.00660100,-0.00115274,0.00656737,0.03968541,-
 0.02193962,-0.00152156,-0.00088222,-0.00727005,0.00055051,-0.00045858,
 0.00304291,0.00005903,0.00058225,0.00206353,0.04696726,0.09079322,0.61
 258602,0.00024970,-0.00047960,0.00022866,-0.00000095,0.00000703,-0.000
 02679,-0.00003510,0.00005392,-0.00003503,0.00100926,-0.00000699,-0.000
 37882,-0.00001474,-0.00014593,-0.00006711,0.00007390,0.00011336,0.0000
 4748,0.00011584,-0.00662262,-0.00217699,0.00030727,-0.00099152,-0.0004
 4681,0.00062819,-0.00045572,-0.00025581,-0.00019075,-0.00030724,-0.000
 07490,-0.00059852,0.00040638,-0.00013775,0.00034325,0.00019049,-0.0000
 9725,-0.12355768,0.14836934,0.11219120,0.11865883,-0.00064917,-0.00052
 443,-0.00003135,0.00011096,0.00007878,0.00002623,0.00009351,-0.0000254
 0,0.00001537,-0.00276681,-0.00507342,0.00399454,-0.00020045,0.00040642
 ,0.00013079,0.00127975,-0.00117481,-0.00074063,0.01739878,-0.02405554,
 -0.01823458,-0.00046070,0.00064481,-0.00079360,0.00070165,0.00215210,-
 0.00110956,-0.00059982,0.00026059,-0.00042152,-0.00016299,-0.00001473,
 0.00018910,-0.00005467,0.00025079,0.00132214,0.11345544,-0.21445241,-0
 .12879445,-0.12923053,0.23935616,0.00032552,0.00009978,0.00031736,-0.0
 0013520,-0.00004815,-0.00001640,-0.00002566,0.00004833,-0.00004132,0.0
 0055398,0.00303106,-0.00184841,0.00008233,0.00000976,0.00022241,-0.000
 37206,0.00078502,0.00065982,-0.00798892,0.01267414,0.00983364,0.000017
 68,-0.00000148,-0.00019000,-0.00119925,0.00166042,0.00172821,0.0001138
 5,-0.00045032,-0.00023557,-0.00016073,-0.00002051,-0.00015196,0.000834
 98,-0.00011655,-0.00084727,0.08595972,-0.13354338,-0.16744668,-0.09800
 621,0.14341391,0.17920013,-0.00003492,0.00020314,-0.00010696,-0.000058
 89,0.00000109,-0.00000202,0.00009294,-0.00007378,0.00005380,-0.0005973
 9,0.00000632,-0.00103417,0.00010917,0.00070007,0.00058065,0.00012741,-
 0.00012393,0.00040829,0.00068597,-0.00320541,0.00860412,0.00080572,-0.
 00014328,0.00119224,-0.00004174,-0.00089681,0.00083232,0.00070186,-0.0
 0016180,0.00034370,0.00033070,-0.00005485,0.00031902,0.00006154,-0.000
 08201,-0.00021964,-0.12600628,0.00541270,-0.18802133,0.00688398,0.0013
 0161,0.01990927,0.12133001,0.00045305,0.00020863,-0.00027351,0.0000214
 2,-0.00000147,-0.00001156,-0.00029291,-0.00003519,-0.00004971,-0.00014
 366,0.00105171,0.00180083,0.00041403,-0.00083104,-0.00128712,-0.000318
 19,0.00019099,-0.00031496,0.01626666,0.00015738,0.03160877,-0.00041957
 ,0.00107755,0.00012172,-0.00136430,-0.00655817,0.00156102,0.00030185,0
 .00037685,0.00197921,0.00017979,-0.00002692,-0.00036928,-0.00027001,0.
 00011042,-0.00004431,0.00414500,-0.05827368,-0.00978583,-0.01547255,0.
 00017307,-0.02680376,-0.00274324,0.06194393,-0.00006924,-0.00006813,-0
 .00022443,0.00009069,-0.00002771,0.00003263,0.00001940,0.00000479,0.00
 001066,0.00009869,-0.00026965,0.00134331,-0.00012784,0.00003863,0.0000
 0906,0.00020837,-0.00006983,-0.00003585,-0.00811843,-0.00074422,-0.014
 01946,0.00066319,-0.00119411,0.00113428,0.00129815,0.00451123,-0.00061
 507,-0.00048262,-0.00025034,-0.00083985,0.00001418,-0.00007366,0.00031
 097,-0.00004275,-0.00008901,0.00033118,-0.14154965,-0.00510301,-0.3185
 3091,-0.01405733,0.00047731,-0.02095158,0.16215687,0.00310050,0.351325
 57,0.00623872,0.00316098,-0.00111321,-0.00085130,-0.00102644,0.0002516
 9,-0.00063023,-0.00096561,0.00038860,0.00080032,-0.00130134,0.00001834
 ,-0.00021058,-0.00025095,-0.00050250,-0.00062539,0.00062197,-0.0001295
 3,-0.00312993,-0.00669179,0.00280201,0.00057758,0.00099635,-0.00043419
 ,0.00047520,0.00128672,0.00028163,0.00009335,0.00016419,-0.00045295,0.
 00006112,-0.00036016,0.00022191,-0.00021484,-0.00002773,0.00011498,-0.
 03999775,-0.00130219,0.00389173,-0.00312119,-0.00005886,0.00032962,-0.
 00436430,-0.00058541,-0.00029498,0.06536404,-0.00178904,-0.00915745,0.
 00187145,0.00014989,0.00071372,-0.00001502,0.00049261,0.00066362,-0.00
 049135,-0.00104404,-0.00065623,-0.00019919,-0.00024605,-0.00041040,-0.
 00044426,0.00061849,0.00011871,-0.00018654,-0.00598015,0.00114689,0.00
 090828,0.00025254,-0.00109615,0.00022053,-0.00018688,-0.00066462,0.000
 01937,0.00007091,-0.00005760,0.00005703,0.00004920,0.00050053,0.000657
 58,0.00047768,0.00000999,-0.00026514,-0.00496594,-0.00719909,0.0006022
 6,0.00476582,0.00147658,-0.00059953,0.00003948,0.00066967,-0.00014721,
 -0.01476131,0.05256930,-0.00047668,0.00099698,0.00076932,0.00009752,-0
 .00017763,-0.00007025,-0.00002638,0.00078567,-0.00025665,0.00025754,0.
 00051261,0.00152765,-0.00032883,-0.00038342,-0.00074631,-0.00003383,-0
 .00004697,-0.00039674,0.00271931,0.00090563,0.00068664,-0.00014783,0.0
 0020782,-0.00037413,0.00207517,0.00003639,0.00062003,-0.00081413,-0.00
 027653,-0.00017868,-0.00115077,0.00027090,-0.00125839,-0.00020142,-0.0
 0008201,-0.00014044,0.00576952,0.00035405,-0.00656958,0.00354450,0.000
 69077,-0.00024443,-0.00582204,-0.00123112,0.00098754,-0.00516155,-0.00
 363162,0.00833256,-0.09961277,-0.04500405,0.01586080,0.00270769,-0.000
 84541,-0.00257862,-0.00029342,-0.00524738,0.00453086,-0.01920347,-0.04
 087081,0.01419849,0.00293528,0.00057188,0.00019718,-0.00877485,0.00176
 138,-0.00173449,0.00374370,-0.00078195,-0.00049899,0.00022132,0.000236
 05,-0.00006282,-0.00051258,-0.00003213,0.00010021,-0.00002925,0.000056
 11,-0.00023257,0.00006183,-0.00004206,0.00002986,0.00003468,0.00023090
 ,0.00019077,-0.00165988,0.00399605,0.00078709,-0.00077955,-0.00016382,
 -0.00021631,0.00005505,-0.00020707,0.00018351,-0.01934613,0.02139491,-
 0.00029784,0.63149334,0.00012714,-0.15349386,0.02644218,-0.02540053,-0
 .03478080,0.01564639,-0.01389878,-0.02009997,0.00805230,-0.00548488,-0
 .00034364,0.00122223,-0.00037680,0.00088915,-0.00111487,0.00065527,0.0
 0236777,-0.00029781,-0.00013674,-0.00312923,-0.00085181,-0.00022048,0.
 00094978,0.00022983,-0.00116420,0.00042858,-0.00045369,0.00067940,0.00
 026063,-0.00039028,0.00059300,-0.00029685,0.00048833,0.00002089,0.0003
 7269,0.00013907,0.00201731,0.00274735,0.00002332,-0.00041523,0.0003922
 8,-0.00015569,-0.00020651,-0.00024743,-0.00006618,0.01589299,-0.039513
 41,0.00132915,-0.06113093,0.31624181,0.00805736,0.03125790,-0.06944763
 ,-0.00694901,-0.00832992,0.00798642,0.01971494,0.03289065,-0.00185984,
 0.00014441,-0.00260694,0.00276593,0.00153728,-0.00113985,0.00118796,-0
 .00094765,-0.00018003,0.00071022,-0.00050334,0.00071483,-0.00044982,0.
 00001522,-0.00016383,0.00017848,-0.00078241,-0.00006222,-0.00075561,0.
 00005813,-0.00008612,0.00020437,0.00035983,0.00051150,0.00031768,0.000
 36338,-0.00002039,0.00014964,-0.00013858,-0.00038612,0.00179782,-0.000
 20535,-0.00006324,-0.00003805,0.00071648,0.00003051,-0.00027313,-0.000
 17217,0.00210068,-0.00388661,-0.04989151,-0.05716640,0.07138355,-0.016
 15890,0.00546083,-0.00014313,0.00213347,0.00133005,-0.00113903,0.00061
 422,0.00107485,-0.00018636,-0.00038915,-0.00462034,0.00147723,0.000325
 59,-0.00001103,0.00003818,-0.00088903,0.00046856,-0.00028737,0.0001804
 7,0.00012580,0.00012928,0.00013703,-0.00009858,-0.00007593,-0.00004834
 ,-0.00006452,-0.00004788,-0.00000250,-0.00000144,0.00001653,0.00001376
 ,0.00008916,0.00014826,0.00008860,-0.00002508,0.00001060,0.00038432,0.
 00002744,-0.00005900,0.00002826,0.00000611,-0.00002261,-0.00008084,0.0
 0003509,0.00000980,-0.00111869,0.00066188,-0.00000224,-0.49104099,0.08
 844909,0.02862299,0.50582272,-0.03457770,0.00684006,0.00132292,-0.0008
 2412,-0.00009990,-0.00094412,-0.00031402,-0.00026839,0.00075630,-0.001
 86229,-0.00652762,0.00233121,0.00030729,0.00005019,-0.00009202,-0.0019
 3168,0.00025022,-0.00034598,-0.00009726,-0.00048922,0.00025524,0.00005
 404,0.00006728,-0.00003346,-0.00000390,0.00006339,-0.00001981,-0.00001
 153,0.00000351,-0.00004736,0.00007264,0.00003927,0.00005933,0.00002977
 ,0.00000940,0.00002659,0.00053089,-0.00038831,-0.00012663,0.00022159,0
 .00012914,0.00001694,0.00002723,0.00001371,-0.00002938,0.00520858,0.00
 088592,-0.00026066,0.12607833,-0.07274484,0.00269898,-0.09290787,0.072
 16620,0.00888094,-0.00168225,-0.00063373,-0.00072191,-0.00020929,0.000
 97367,0.00130356,0.00029777,-0.00072506,-0.00033696,0.00062480,-0.0006
 3690,-0.00006949,0.00013872,0.00006971,0.00006892,-0.00009109,0.000545
 09,-0.00023542,-0.00008367,0.00000799,-0.00002164,-0.00000312,-0.00003
 674,0.00011083,0.00009546,0.00003721,0.00005435,0.00000897,-0.00000574
 ,0.00006348,-0.00008866,-0.00000049,-0.00005070,0.00000226,-0.00004517
 ,0.00000470,0.00019422,0.00026665,-0.00004569,-0.00007124,0.00005012,0
 .00008939,-0.00003140,0.00000509,-0.00003942,-0.00045733,0.00119847,0.
 01943437,0.00692393,-0.00997137,-0.02848933,-0.00556808,0.00890119||-0
 .00000177,0.00000387,0.00000193,-0.00000304,-0.00000445,-0.00000034,-0
 .00000116,-0.00000073,-0.00000054,-0.00000369,-0.00001037,-0.00000504,
 -0.00000441,-0.00000241,0.00000370,0.00000035,0.00000172,0.00000842,-0
 .00000489,0.00001280,-0.00000629,-0.00000033,0.00000162,0.00000706,0.0
 0000185,-0.00000016,0.00001248,0.00000633,0.00000558,0.00000121,0.0000
 0604,0.00000532,-0.00000266,0.00000770,0.00000541,0.00000211,0.0000036
 4,-0.00000840,0.00000376,-0.00000572,0.00000109,-0.00000454,-0.0000079
 4,-0.00000256,0.00000248,0.00001263,-0.00001063,0.00000303,0.00000266,
 0.00000719,-0.00001923,-0.00000823,-0.00000489,-0.00000752|||@


 NOBODY LOSES ALL THE TIME
 I HAD AN UNCLE NAMED
 SOL WHO WAS A BORN FAILURE AND
 NEARLY EVERYBODY SAID HE SHOULD HAVE GONE
 INTO VAUDEVILLE PERHAPS BECAUSE MY UNCLE SOL COULD
 SING MCCANN HE WAS A DIVER ON XMAS EVE LIKE HELL ITSELF WHICH
 MAY OR MAY NOT ACCOUNT FOR THE FACT THAT MY UNCLE
 SOL INDULGED IN THAT POSSIBLY MOST INEXCUSABLE
 OF ALL TO USE A HIGHFALOOTIN PHRASE
 LUXURIES THAT IS OR TO
 WIT FARMING AND BE
 IT NEEDLESSLY
 ADDED
 MY UNCLE SOL'S FARM     
 FAILED BECAUSE THE CHICKENS
 ATE THE VEGETABLES SO
 MY UNCLE SOL HAD A
 CHICKEN FARM TILL THE
 SKUNKS ATE THE CHICKENS WHEN 
 MY UNCLE SOL
 HAD A SKUNK FARM BUT
 THE SKUNKS CAUGHT COLD AND
 DIED AND SO
 MY UNCLE SOL IMITATED THE
 SKUNKS IN A SUBTLE MANNER
 OR BY DROWNING HIMSELF IN THE WATERTANK
 BUT SOMEBODY WHO'D GIVEN MY UNCLE SOL A VICTOR     
 VICTROLA AND RECORDS WHILE HE LIVED PRESENTED TO
 HIM UPON THE AUSPICIOUS OCCASION OF HIS DECEASE A
 SCRUMPTIOUS NOT TO MENTION SPLENDIFEROUS FUNERAL WITH
 TALL BOYS IN BLACK GLOVES AND FLOWERS AND EVERYTHING AND
 I REMEMBER WE ALL CRIED LIKE THE MISSOURI
 WHEN MY UNCLE SOL'S COFFIN LURCHED BECAUSE     
 SOMEBODY PRESSED A BUTTON
 (AND DOWN WENT
 MY UNCLE
 SOL
 AND STARTED A WORM FARM)
           E. E. CUMMINGS
 Job cpu time:       0 days  0 hours 29 minutes 32.0 seconds.
 File lengths (MBytes):  RWF=     64 Int=      0 D2E=      0 Chk=      4 Scr=      1
 Normal termination of Gaussian 09 at Sun Jun 25 17:21:58 2023.
