 Entering Link 1 = G:\DOWNLOAD\daf\New folder (4)\G09W\l1.exe PID=      6976.
  
 Copyright (c) 1988,1990,1992,1993,1995,1998,2003,2009,2013,
            Gaussian, Inc.  All Rights Reserved.
  
 This is part of the Gaussian(R) 09 program.  It is based on
 the Gaussian(R) 03 system (copyright 2003, Gaussian, Inc.),
 the Gaussian(R) 98 system (copyright 1998, Gaussian, Inc.),
 the Gaussian(R) 94 system (copyright 1995, Gaussian, Inc.),
 the Gaussian 92(TM) system (copyright 1992, Gaussian, Inc.),
 the Gaussian 90(TM) system (copyright 1990, Gaussian, Inc.),
 the Gaussian 88(TM) system (copyright 1988, Gaussian, Inc.),
 the Gaussian 86(TM) system (copyright 1986, Carnegie Mellon
 University), and the Gaussian 82(TM) system (copyright 1983,
 Carnegie Mellon University). Gaussian is a federally registered
 trademark of Gaussian, Inc.
  
 This software contains proprietary and confidential information,
 including trade secrets, belonging to Gaussian, Inc.
  
 This software is provided under written license and may be
 used, copied, transmitted, or stored only in accord with that
 written license.
  
 The following legend is applicable only to US Government
 contracts under FAR:
  
                    RESTRICTED RIGHTS LEGEND
  
 Use, reproduction and disclosure by the US Government is
 subject to restrictions as set forth in subparagraphs (a)
 and (c) of the Commercial Computer Software - Restricted
 Rights clause in FAR 52.227-19.
  
 Gaussian, Inc.
 340 Quinnipiac St., Bldg. 40, Wallingford CT 06492
  
  
 ---------------------------------------------------------------
 Warning -- This program may not be used in any manner that
 competes with the business of Gaussian, Inc. or will provide
 assistance to any competitor of Gaussian, Inc.  The licensee
 of this program is prohibited from giving any competitor of
 Gaussian, Inc. access to this program.  By using this program,
 the user acknowledges that Gaussian, Inc. is engaged in the
 business of creating and licensing software in the field of
 computational chemistry and represents and warrants to the
 licensee that it is not a competitor of Gaussian, Inc. and that
 it will not use this program in any manner prohibited above.
 ---------------------------------------------------------------
  

 Cite this work as:
 Gaussian 09, Revision D.01,
 M. J. Frisch, G. W. Trucks, H. B. Schlegel, G. E. Scuseria, 
 M. A. Robb, J. R. Cheeseman, G. Scalmani, V. Barone, B. Mennucci, 
 G. A. Petersson, H. Nakatsuji, M. Caricato, X. Li, H. P. Hratchian, 
 A. F. Izmaylov, J. Bloino, G. Zheng, J. L. Sonnenberg, M. Hada, 
 M. Ehara, K. Toyota, R. Fukuda, J. Hasegawa, M. Ishida, T. Nakajima, 
 Y. Honda, O. Kitao, H. Nakai, T. Vreven, J. A. Montgomery, Jr., 
 J. E. Peralta, F. Ogliaro, M. Bearpark, J. J. Heyd, E. Brothers, 
 K. N. Kudin, V. N. Staroverov, T. Keith, R. Kobayashi, J. Normand, 
 K. Raghavachari, A. Rendell, J. C. Burant, S. S. Iyengar, J. Tomasi, 
 M. Cossi, N. Rega, J. M. Millam, M. Klene, J. E. Knox, J. B. Cross, 
 V. Bakken, C. Adamo, J. Jaramillo, R. Gomperts, R. E. Stratmann, 
 O. Yazyev, A. J. Austin, R. Cammi, C. Pomelli, J. W. Ochterski, 
 R. L. Martin, K. Morokuma, V. G. Zakrzewski, G. A. Voth, 
 P. Salvador, J. J. Dannenberg, S. Dapprich, A. D. Daniels, 
 O. Farkas, J. B. Foresman, J. V. Ortiz, J. Cioslowski, 
 and D. J. Fox, Gaussian, Inc., Wallingford CT, 2013.
 
 ******************************************
 Gaussian 09:  IA32W-G09RevD.01 24-Apr-2013
                25-Jun-2023 
 ******************************************
 %chk=C:\Users\Mrs\Desktop\chem\QM\molecule\mol.C1.chk
 ----------------------------------------------
 # opt freq b3lyp/6-31+g(d,p) geom=connectivity
 ----------------------------------------------
 1/14=-1,18=20,19=15,26=3,38=1,57=2/1,3;
 2/9=110,12=2,17=6,18=5,40=1/2;
 3/5=1,6=6,7=111,11=2,16=1,25=1,30=1,71=1,74=-5/1,2,3;
 4//1;
 5/5=2,38=5/2;
 6/7=2,8=2,9=2,10=2,28=1/1;
 7//1,2,3,16;
 1/14=-1,18=20,19=15,26=3/3(2);
 2/9=110/2;
 99//99;
 2/9=110/2;
 3/5=1,6=6,7=111,11=2,16=1,25=1,30=1,71=1,74=-5/1,2,3;
 4/5=5,16=3,69=1/1;
 5/5=2,38=5/2;
 7//1,2,3,16;
 1/14=-1,18=20,19=15,26=3/3(-5);
 2/9=110/2;
 6/7=2,8=2,9=2,10=2,19=2,28=1/1;
 99/9=1/99;
 -----
 M0001
 -----
 Symbolic Z-matrix:
 Charge =  0 Multiplicity = 1
 C                    -0.39418   1.03951   1.67335 
 H                     0.59257   0.99763   2.14556 
 H                    -0.86913   1.98166   1.96346 
 C                    -0.28211   0.95566   0.1515 
 H                     0.21082   1.86597  -0.21077 
 H                    -1.28944   0.93378  -0.28421 
 C                     0.51193  -0.27213  -0.3296 
 H                     1.50642  -0.25288   0.13156 
 C                     0.67998  -0.24763  -1.84797 
 H                     1.20831   0.65861  -2.16313 
 H                    -0.28819  -0.2681   -2.3608 
 H                     1.26422  -1.10799  -2.19277 
 O                    -1.18864  -0.02077   2.18777 
 H                    -0.87334  -0.83158   1.72967 
 N                    -0.15342  -1.51767   0.07549 
 H                    -1.04121  -1.60167  -0.42665 
 H                     0.4054   -2.3124   -0.24246 
 

 GradGradGradGradGradGradGradGradGradGradGradGradGradGradGradGradGradGrad
 Berny optimization.
 Initialization pass.
                           ----------------------------
                           !    Initial Parameters    !
                           ! (Angstroms and Degrees)  !
 --------------------------                            --------------------------
 ! Name  Definition              Value          Derivative Info.                !
 --------------------------------------------------------------------------------
 ! R1    R(1,2)                  1.0947         estimate D2E/DX2                !
 ! R2    R(1,3)                  1.0942         estimate D2E/DX2                !
 ! R3    R(1,4)                  1.5283         estimate D2E/DX2                !
 ! R4    R(1,13)                 1.4213         estimate D2E/DX2                !
 ! R5    R(4,5)                  1.0968         estimate D2E/DX2                !
 ! R6    R(4,6)                  1.0977         estimate D2E/DX2                !
 ! R7    R(4,7)                  1.5393         estimate D2E/DX2                !
 ! R8    R(7,8)                  1.0964         estimate D2E/DX2                !
 ! R9    R(7,9)                  1.5278         estimate D2E/DX2                !
 ! R10   R(7,15)                 1.4691         estimate D2E/DX2                !
 ! R11   R(9,10)                 1.0953         estimate D2E/DX2                !
 ! R12   R(9,11)                 1.0958         estimate D2E/DX2                !
 ! R13   R(9,12)                 1.0956         estimate D2E/DX2                !
 ! R14   R(13,14)                0.9832         estimate D2E/DX2                !
 ! R15   R(15,16)                1.0234         estimate D2E/DX2                !
 ! R16   R(15,17)                1.0222         estimate D2E/DX2                !
 ! A1    A(2,1,3)              108.0481         estimate D2E/DX2                !
 ! A2    A(2,1,4)              111.1819         estimate D2E/DX2                !
 ! A3    A(2,1,13)             108.6138         estimate D2E/DX2                !
 ! A4    A(3,1,4)              110.0641         estimate D2E/DX2                !
 ! A5    A(3,1,13)             107.6828         estimate D2E/DX2                !
 ! A6    A(4,1,13)             111.1298         estimate D2E/DX2                !
 ! A7    A(1,4,5)              108.4422         estimate D2E/DX2                !
 ! A8    A(1,4,6)              109.2112         estimate D2E/DX2                !
 ! A9    A(1,4,7)              113.1303         estimate D2E/DX2                !
 ! A10   A(5,4,6)              107.3292         estimate D2E/DX2                !
 ! A11   A(5,4,7)              109.0841         estimate D2E/DX2                !
 ! A12   A(6,4,7)              109.4752         estimate D2E/DX2                !
 ! A13   A(4,7,8)              108.8103         estimate D2E/DX2                !
 ! A14   A(4,7,9)              110.7661         estimate D2E/DX2                !
 ! A15   A(4,7,15)             110.8828         estimate D2E/DX2                !
 ! A16   A(8,7,9)              108.5397         estimate D2E/DX2                !
 ! A17   A(8,7,15)             108.0422         estimate D2E/DX2                !
 ! A18   A(9,7,15)             109.7218         estimate D2E/DX2                !
 ! A19   A(7,9,10)             110.6269         estimate D2E/DX2                !
 ! A20   A(7,9,11)             111.5686         estimate D2E/DX2                !
 ! A21   A(7,9,12)             111.0271         estimate D2E/DX2                !
 ! A22   A(10,9,11)            107.8768         estimate D2E/DX2                !
 ! A23   A(10,9,12)            107.5739         estimate D2E/DX2                !
 ! A24   A(11,9,12)            108.0099         estimate D2E/DX2                !
 ! A25   A(1,13,14)            105.5045         estimate D2E/DX2                !
 ! A26   A(7,15,16)            109.0977         estimate D2E/DX2                !
 ! A27   A(7,15,17)            109.0136         estimate D2E/DX2                !
 ! A28   A(16,15,17)           104.9395         estimate D2E/DX2                !
 ! D1    D(2,1,4,5)            -67.0308         estimate D2E/DX2                !
 ! D2    D(2,1,4,6)            176.3086         estimate D2E/DX2                !
 ! D3    D(2,1,4,7)             54.1159         estimate D2E/DX2                !
 ! D4    D(3,1,4,5)             52.6565         estimate D2E/DX2                !
 ! D5    D(3,1,4,6)            -64.0041         estimate D2E/DX2                !
 ! D6    D(3,1,4,7)            173.8032         estimate D2E/DX2                !
 ! D7    D(13,1,4,5)           171.8548         estimate D2E/DX2                !
 ! D8    D(13,1,4,6)            55.1942         estimate D2E/DX2                !
 ! D9    D(13,1,4,7)           -66.9985         estimate D2E/DX2                !
 ! D10   D(2,1,13,14)          -77.0297         estimate D2E/DX2                !
 ! D11   D(3,1,13,14)          166.1942         estimate D2E/DX2                !
 ! D12   D(4,1,13,14)           45.5805         estimate D2E/DX2                !
 ! D13   D(1,4,7,8)            -56.5396         estimate D2E/DX2                !
 ! D14   D(1,4,7,9)           -175.7752         estimate D2E/DX2                !
 ! D15   D(1,4,7,15)            62.1557         estimate D2E/DX2                !
 ! D16   D(5,4,7,8)             64.2437         estimate D2E/DX2                !
 ! D17   D(5,4,7,9)            -54.9919         estimate D2E/DX2                !
 ! D18   D(5,4,7,15)          -177.061          estimate D2E/DX2                !
 ! D19   D(6,4,7,8)           -178.5847         estimate D2E/DX2                !
 ! D20   D(6,4,7,9)             62.1797         estimate D2E/DX2                !
 ! D21   D(6,4,7,15)           -59.8894         estimate D2E/DX2                !
 ! D22   D(4,7,9,10)            59.352          estimate D2E/DX2                !
 ! D23   D(4,7,9,11)           -60.7464         estimate D2E/DX2                !
 ! D24   D(4,7,9,12)           178.714          estimate D2E/DX2                !
 ! D25   D(8,7,9,10)           -60.0465         estimate D2E/DX2                !
 ! D26   D(8,7,9,11)           179.8551         estimate D2E/DX2                !
 ! D27   D(8,7,9,12)            59.3156         estimate D2E/DX2                !
 ! D28   D(15,7,9,10)         -177.9024         estimate D2E/DX2                !
 ! D29   D(15,7,9,11)           61.9992         estimate D2E/DX2                !
 ! D30   D(15,7,9,12)          -58.5403         estimate D2E/DX2                !
 ! D31   D(4,7,15,16)           66.9774         estimate D2E/DX2                !
 ! D32   D(4,7,15,17)         -178.9515         estimate D2E/DX2                !
 ! D33   D(8,7,15,16)         -173.8641         estimate D2E/DX2                !
 ! D34   D(8,7,15,17)          -59.7931         estimate D2E/DX2                !
 ! D35   D(9,7,15,16)          -55.6991         estimate D2E/DX2                !
 ! D36   D(9,7,15,17)           58.3719         estimate D2E/DX2                !
 --------------------------------------------------------------------------------
 Trust Radius=3.00D-01 FncErr=1.00D-07 GrdErr=1.00D-06
 Number of steps in this run=     90 maximum allowed number of steps=    102.
 GradGradGradGradGradGradGradGradGradGradGradGradGradGradGradGradGradGrad

                          Input orientation:                          
 ---------------------------------------------------------------------
 Center     Atomic      Atomic             Coordinates (Angstroms)
 Number     Number       Type             X           Y           Z
 ---------------------------------------------------------------------
      1          6           0       -0.394182    1.039514    1.673354
      2          1           0        0.592575    0.997630    2.145557
      3          1           0       -0.869125    1.981665    1.963456
      4          6           0       -0.282108    0.955664    0.151503
      5          1           0        0.210818    1.865970   -0.210773
      6          1           0       -1.289440    0.933777   -0.284214
      7          6           0        0.511930   -0.272134   -0.329599
      8          1           0        1.506424   -0.252883    0.131563
      9          6           0        0.679981   -0.247627   -1.847966
     10          1           0        1.208315    0.658610   -2.163131
     11          1           0       -0.288192   -0.268097   -2.360796
     12          1           0        1.264217   -1.107986   -2.192770
     13          8           0       -1.188644   -0.020774    2.187769
     14          1           0       -0.873338   -0.831585    1.729670
     15          7           0       -0.153417   -1.517673    0.075491
     16          1           0       -1.041214   -1.601672   -0.426651
     17          1           0        0.405402   -2.312399   -0.242464
 ---------------------------------------------------------------------
                    Distance matrix (angstroms):
                    1          2          3          4          5
     1  C    0.000000
     2  H    1.094723   0.000000
     3  H    1.094248   1.771455   0.000000
     4  C    1.528274   2.177861   2.163433   0.000000
     5  H    2.144525   2.540087   2.430419   1.096757   0.000000
     6  H    2.155166   3.074060   2.515304   1.097747   1.767810
     7  C    2.559937   2.783020   3.499289   1.539299   2.162470
     8  H    2.767618   2.540683   3.740624   2.158663   2.507056
     9  C    3.900032   4.184080   4.679360   2.524163   2.714371
    10  H    4.175129   4.365645   4.805721   2.768958   2.502882
    11  H    4.242104   4.762880   4.908978   2.794508   3.070155
    12  H    4.723236   4.868860   5.601009   3.485023   3.725906
    13  O    1.421268   2.052235   2.040139   2.433437   3.357275
    14  H    1.932297   2.380733   2.822950   2.456506   3.495357
    15  N    3.024952   3.341919   4.040051   2.477849   3.415209
    16  H    3.435772   4.005232   4.310746   2.729555   3.693065
    17  H    3.942716   4.085825   4.992944   3.362754   4.183018
                    6          7          8          9         10
     6  H    0.000000
     7  C    2.168229   0.000000
     8  H    3.065597   1.096384   0.000000
     9  C    2.778427   1.527835   2.145127   0.000000
    10  H    3.137646   2.170962   2.487029   1.095323   0.000000
    11  H    2.599844   2.183111   3.071275   1.095798   1.771268
    12  H    3.785835   2.176233   2.488451   1.095645   1.767729
    13  O    2.651797   3.048323   3.397829   4.453131   5.013711
    14  H    2.710235   2.544120   2.924399   3.943766   4.659170
    15  N    2.725718   1.469065   2.087561   2.450971   3.406164
    16  H    2.551550   2.046790   2.936204   2.610764   3.631063
    17  H    3.662225   2.044902   2.365111   2.629889   3.627745
                   11         12         13         14         15
    11  H    0.000000
    12  H    1.773026   0.000000
    13  O    4.643428   5.136893   0.000000
    14  H    4.170351   4.475609   0.983202   0.000000
    15  N    2.741368   2.706019   2.788210   1.930107   0.000000
    16  H    2.467060   2.945830   3.058785   2.295852   1.023418
    17  H    3.024496   2.447829   3.701156   2.778003   1.022235
                   16         17
    16  H    0.000000
    17  H    1.622268   0.000000
 Stoichiometry    C4H11NO
 Framework group  C1[X(C4H11NO)]
 Deg. of freedom    45
 Full point group                 C1      NOp   1
 Largest Abelian subgroup         C1      NOp   1
 Largest concise Abelian subgroup C1      NOp   1
                         Standard orientation:                         
 ---------------------------------------------------------------------
 Center     Atomic      Atomic             Coordinates (Angstroms)
 Number     Number       Type             X           Y           Z
 ---------------------------------------------------------------------
      1          6           0        1.633431   -0.667351    0.236185
      2          1           0        1.677456   -0.705153    1.329369
      3          1           0        2.329670   -1.414277   -0.157174
      4          6           0        0.219446   -0.950874   -0.269665
      5          1           0       -0.027556   -1.994976   -0.042248
      6          1           0        0.197440   -0.840032   -1.361579
      7          6           0       -0.843631   -0.033389    0.360836
      8          1           0       -0.795083   -0.133581    1.451553
      9          6           0       -2.244704   -0.430193   -0.101571
     10          1           0       -2.464101   -1.466402    0.177474
     11          1           0       -2.349080   -0.345386   -1.189085
     12          1           0       -3.006679    0.205795    0.362490
     13          8           0        2.084114    0.610730   -0.192061
     14          1           0        1.334495    1.224024   -0.022867
     15          7           0       -0.589337    1.373112    0.021359
     16          1           0       -0.731622    1.506071   -0.983361
     17          1           0       -1.299744    1.957131    0.467687
 ---------------------------------------------------------------------
 Rotational constants (GHZ):      6.2903020      2.2773665      1.8213798
 Standard basis: 6-31+G(d,p) (6D, 7F)
 There are   169 symmetry adapted cartesian basis functions of A   symmetry.
 There are   169 symmetry adapted basis functions of A   symmetry.
   169 basis functions,   269 primitive gaussians,   169 cartesian basis functions
    25 alpha electrons       25 beta electrons
       nuclear repulsion energy       263.4938163114 Hartrees.
 NAtoms=   17 NActive=   17 NUniq=   17 SFac= 1.00D+00 NAtFMM=   60 NAOKFM=F Big=F
 Integral buffers will be    262144 words long.
 Raffenetti 2 integral format.
 Two-electron integral symmetry is turned on.
 One-electron integrals computed using PRISM.
 NBasis=   169 RedAO= T EigKep=  2.73D-05  NBF=   169
 NBsUse=   169 1.00D-06 EigRej= -1.00D+00 NBFU=   169
 ExpMin= 4.38D-02 ExpMax= 5.48D+03 ExpMxC= 8.25D+02 IAcc=2 IRadAn=         4 AccDes= 0.00D+00
 Harris functional with IExCor=  402 and IRadAn=       4 diagonalized for initial guess.
 HarFok:  IExCor=  402 AccDes= 0.00D+00 IRadAn=         4 IDoV= 1 UseB2=F ITyADJ=14
 ICtDFT=  3500011 ScaDFX=  1.000000  1.000000  1.000000  1.000000
 FoFCou: FMM=F IPFlag=           0 FMFlag=      100000 FMFlg1=           0
         NFxFlg=           0 DoJE=T BraDBF=F KetDBF=T FulRan=T
         wScrn=  0.000000 ICntrl=     500 IOpCl=  0 I1Cent=   200000004 NGrid=           0
         NMat0=    1 NMatS0=      1 NMatT0=    0 NMatD0=    1 NMtDS0=    0 NMtDT0=    0
 Petite list used in FoFCou.
 Requested convergence on RMS density matrix=1.00D-08 within 128 cycles.
 Requested convergence on MAX density matrix=1.00D-06.
 Requested convergence on             energy=1.00D-06.
 No special actions if energy rises.
 SCF Done:  E(RB3LYP) =  -289.050371813     A.U. after   12 cycles
            NFock= 12  Conv=0.76D-08     -V/T= 2.0095

 **********************************************************************

            Population analysis using the SCF density.

 **********************************************************************

 Orbital symmetries:
       Occupied  (A) (A) (A) (A) (A) (A) (A) (A) (A) (A) (A) (A)
                 (A) (A) (A) (A) (A) (A) (A) (A) (A) (A) (A) (A)
                 (A)
       Virtual   (A) (A) (A) (A) (A) (A) (A) (A) (A) (A) (A) (A)
                 (A) (A) (A) (A) (A) (A) (A) (A) (A) (A) (A) (A)
                 (A) (A) (A) (A) (A) (A) (A) (A) (A) (A) (A) (A)
                 (A) (A) (A) (A) (A) (A) (A) (A) (A) (A) (A) (A)
                 (A) (A) (A) (A) (A) (A) (A) (A) (A) (A) (A) (A)
                 (A) (A) (A) (A) (A) (A) (A) (A) (A) (A) (A) (A)
                 (A) (A) (A) (A) (A) (A) (A) (A) (A) (A) (A) (A)
                 (A) (A) (A) (A) (A) (A) (A) (A) (A) (A) (A) (A)
                 (A) (A) (A) (A) (A) (A) (A) (A) (A) (A) (A) (A)
                 (A) (A) (A) (A) (A) (A) (A) (A) (A) (A) (A) (A)
                 (A) (A) (A) (A) (A) (A) (A) (A) (A) (A) (A) (A)
                 (A) (A) (A) (A) (A) (A) (A) (A) (A) (A) (A) (A)
 The electronic state is 1-A.
 Alpha  occ. eigenvalues --  -19.12437 -14.34453 -10.23191 -10.22263 -10.19021
 Alpha  occ. eigenvalues --  -10.18950  -0.99803  -0.91248  -0.77670  -0.72183
 Alpha  occ. eigenvalues --   -0.63697  -0.59183  -0.51344  -0.49160  -0.47178
 Alpha  occ. eigenvalues --   -0.43792  -0.43392  -0.41271  -0.39575  -0.38782
 Alpha  occ. eigenvalues --   -0.36162  -0.34679  -0.32149  -0.26126  -0.25269
 Alpha virt. eigenvalues --   -0.00387   0.01686   0.02277   0.02515   0.05146
 Alpha virt. eigenvalues --    0.05611   0.05866   0.06309   0.07560   0.08307
 Alpha virt. eigenvalues --    0.08786   0.10127   0.11950   0.12336   0.13246
 Alpha virt. eigenvalues --    0.14523   0.14949   0.15742   0.17603   0.18899
 Alpha virt. eigenvalues --    0.19914   0.21515   0.22101   0.23215   0.23434
 Alpha virt. eigenvalues --    0.23999   0.24775   0.25645   0.27000   0.27998
 Alpha virt. eigenvalues --    0.28819   0.30024   0.30831   0.31220   0.34251
 Alpha virt. eigenvalues --    0.34494   0.35396   0.37113   0.38962   0.42528
 Alpha virt. eigenvalues --    0.60402   0.61271   0.63710   0.65980   0.68285
 Alpha virt. eigenvalues --    0.69609   0.69852   0.72135   0.74074   0.76572
 Alpha virt. eigenvalues --    0.81610   0.87225   0.91362   0.92703   0.94695
 Alpha virt. eigenvalues --    0.95384   0.96260   0.98049   0.99527   1.03003
 Alpha virt. eigenvalues --    1.04482   1.07332   1.08572   1.10848   1.11518
 Alpha virt. eigenvalues --    1.12393   1.15100   1.23390   1.25156   1.27054
 Alpha virt. eigenvalues --    1.32340   1.36975   1.39121   1.45153   1.47668
 Alpha virt. eigenvalues --    1.53273   1.55796   1.58606   1.60032   1.62148
 Alpha virt. eigenvalues --    1.67448   1.74103   1.80412   1.83164   1.86664
 Alpha virt. eigenvalues --    1.89190   1.90982   1.94576   1.97041   2.00087
 Alpha virt. eigenvalues --    2.03021   2.04070   2.05836   2.06933   2.09509
 Alpha virt. eigenvalues --    2.11158   2.14586   2.18516   2.20205   2.25634
 Alpha virt. eigenvalues --    2.27719   2.29795   2.32772   2.35604   2.37956
 Alpha virt. eigenvalues --    2.40839   2.45557   2.47531   2.53525   2.54551
 Alpha virt. eigenvalues --    2.58346   2.61483   2.69526   2.70201   2.72723
 Alpha virt. eigenvalues --    2.74680   2.76195   2.77468   2.83930   2.84800
 Alpha virt. eigenvalues --    2.86502   2.89148   2.93675   2.94600   2.98107
 Alpha virt. eigenvalues --    3.00059   3.05229   3.23639   3.30277   3.33214
 Alpha virt. eigenvalues --    3.34819   3.36749   3.45458   3.46048   3.50490
 Alpha virt. eigenvalues --    3.52851   3.58333   3.64499   4.20695   4.28304
 Alpha virt. eigenvalues --    4.42507   4.51382   4.61188   4.72055
          Condensed to atoms (all electrons):
               1          2          3          4          5          6
     1  C    5.130132   0.417065   0.468087  -0.301142  -0.005928  -0.003202
     2  H    0.417065   0.646810  -0.048905   0.010879  -0.000150   0.004589
     3  H    0.468087  -0.048905   0.604364  -0.127314  -0.002184  -0.004548
     4  C   -0.301142   0.010879  -0.127314   6.930923   0.383606   0.363467
     5  H   -0.005928  -0.000150  -0.002184   0.383606   0.581810  -0.031306
     6  H   -0.003202   0.004589  -0.004548   0.363467  -0.031306   0.559965
     7  C    0.359698  -0.087315   0.044014  -1.398763  -0.080880  -0.007507
     8  H   -0.022558   0.003472   0.000038  -0.021985  -0.004039   0.004865
     9  C   -0.121248   0.004280  -0.004799   0.397033  -0.005701  -0.027029
    10  H   -0.003457   0.000010   0.000002   0.022212   0.001749  -0.000121
    11  H   -0.005494   0.000002  -0.000003   0.007954  -0.000351   0.002749
    12  H   -0.004265   0.000004   0.000002   0.025075   0.000182  -0.000059
    13  O    0.236138  -0.067391  -0.059345  -0.008896   0.008064  -0.004506
    14  H    0.009218  -0.004726   0.006328  -0.052956   0.000081  -0.001214
    15  N   -0.031549   0.007277  -0.002866   0.108965   0.018822  -0.010140
    16  H    0.006840  -0.000046  -0.000004  -0.050241  -0.000206   0.003638
    17  H   -0.006019   0.000027   0.000009   0.027686  -0.000162  -0.000006
               7          8          9         10         11         12
     1  C    0.359698  -0.022558  -0.121248  -0.003457  -0.005494  -0.004265
     2  H   -0.087315   0.003472   0.004280   0.000010   0.000002   0.000004
     3  H    0.044014   0.000038  -0.004799   0.000002  -0.000003   0.000002
     4  C   -1.398763  -0.021985   0.397033   0.022212   0.007954   0.025075
     5  H   -0.080880  -0.004039  -0.005701   0.001749  -0.000351   0.000182
     6  H   -0.007507   0.004865  -0.027029  -0.000121   0.002749  -0.000059
     7  C    7.940500   0.369215  -0.702223  -0.126413  -0.102130  -0.104534
     8  H    0.369215   0.594226  -0.000241  -0.002161   0.004653  -0.005067
     9  C   -0.702223  -0.000241   5.670732   0.450397   0.460138   0.446089
    10  H   -0.126413  -0.002161   0.450397   0.553381  -0.028612  -0.027278
    11  H   -0.102130   0.004653   0.460138  -0.028612   0.553071  -0.031856
    12  H   -0.104534  -0.005067   0.446089  -0.027278  -0.031856   0.565152
    13  O   -0.109408   0.000329   0.009603   0.000125  -0.000169   0.000013
    14  H    0.021129  -0.000577  -0.003376  -0.000018  -0.000002   0.000016
    15  N   -0.155679  -0.059119  -0.006783   0.014265  -0.009444  -0.006037
    16  H    0.003199   0.006338   0.002523  -0.000022   0.003623  -0.001141
    17  H   -0.040341  -0.005331   0.006942   0.000020  -0.000596   0.003890
              13         14         15         16         17
     1  C    0.236138   0.009218  -0.031549   0.006840  -0.006019
     2  H   -0.067391  -0.004726   0.007277  -0.000046   0.000027
     3  H   -0.059345   0.006328  -0.002866  -0.000004   0.000009
     4  C   -0.008896  -0.052956   0.108965  -0.050241   0.027686
     5  H    0.008064   0.000081   0.018822  -0.000206  -0.000162
     6  H   -0.004506  -0.001214  -0.010140   0.003638  -0.000006
     7  C   -0.109408   0.021129  -0.155679   0.003199  -0.040341
     8  H    0.000329  -0.000577  -0.059119   0.006338  -0.005331
     9  C    0.009603  -0.003376  -0.006783   0.002523   0.006942
    10  H    0.000125  -0.000018   0.014265  -0.000022   0.000020
    11  H   -0.000169  -0.000002  -0.009444   0.003623  -0.000596
    12  H    0.000013   0.000016  -0.006037  -0.001141   0.003890
    13  O    8.271400   0.253487   0.001201  -0.001213   0.001284
    14  H    0.253487   0.355263   0.020123  -0.003399   0.001644
    15  N    0.001201   0.020123   7.185386   0.332149   0.323807
    16  H   -0.001213  -0.003399   0.332149   0.424402  -0.034197
    17  H    0.001284   0.001644   0.323807  -0.034197   0.427616
 Mulliken charges:
               1
     1  C   -0.122314
     2  H    0.114120
     3  H    0.127122
     4  C   -0.316504
     5  H    0.136593
     6  H    0.150367
     7  C    0.177437
     8  H    0.137945
     9  C   -0.576335
    10  H    0.145922
    11  H    0.146466
    12  H    0.139815
    13  O   -0.530716
    14  H    0.398979
    15  N   -0.730380
    16  H    0.307758
    17  H    0.293727
 Sum of Mulliken charges =   0.00000
 Mulliken charges with hydrogens summed into heavy atoms:
               1
     1  C    0.118928
     4  C   -0.029545
     7  C    0.315382
     9  C   -0.144132
    13  O   -0.131737
    15  N   -0.128895
 Electronic spatial extent (au):  <R**2>=            714.3722
 Charge=              0.0000 electrons
 Dipole moment (field-independent basis, Debye):
    X=             -3.7300    Y=             -0.7407    Z=              0.3189  Tot=              3.8162
 Quadrupole moment (field-independent basis, Debye-Ang):
   XX=            -46.1637   YY=            -37.9685   ZZ=            -38.7361
   XY=             -5.6288   XZ=              0.9371   YZ=             -0.4336
 Traceless Quadrupole moment (field-independent basis, Debye-Ang):
   XX=             -5.2076   YY=              2.9876   ZZ=              2.2200
   XY=             -5.6288   XZ=              0.9371   YZ=             -0.4336
 Octapole moment (field-independent basis, Debye-Ang**2):
  XXX=            -14.0880  YYY=              7.4514  ZZZ=             -1.0596  XYY=             -2.7708
  XXY=             -3.7277  XXZ=              4.1195  XZZ=             -0.8290  YZZ=              3.3073
  YYZ=             -0.7939  XYZ=              0.6302
 Hexadecapole moment (field-independent basis, Debye-Ang**3):
 XXXX=           -683.2968 YYYY=           -230.7768 ZZZZ=            -88.0666 XXXY=            -30.3865
 XXXZ=             -0.0362 YYYX=             -8.5772 YYYZ=             -2.9687 ZZZX=              1.1375
 ZZZY=             -1.8494 XXYY=           -138.4475 XXZZ=           -121.3062 YYZZ=            -54.1806
 XXYZ=              4.3434 YYXZ=             -3.9617 ZZXY=             -3.4117
 N-N= 2.634938163114D+02 E-N=-1.199313651868D+03  KE= 2.863199275313D+02
 Calling FoFJK, ICntrl=      2127 FMM=F ISym2X=0 I1Cent= 0 IOpClX= 0 NMat=1 NMatS=1 NMatT=0.
 ***** Axes restored to original set *****
 -------------------------------------------------------------------
 Center     Atomic                   Forces (Hartrees/Bohr)
 Number     Number              X              Y              Z
 -------------------------------------------------------------------
      1        6          -0.006920144   -0.005511376   -0.000461208
      2        1           0.006388326    0.003589731   -0.000998704
      3        1          -0.000719711   -0.000061098    0.001327125
      4        6           0.006009699    0.000057335    0.004171026
      5        1           0.000844381   -0.000325344   -0.002238982
      6        1          -0.000740890    0.000428108    0.000037304
      7        6          -0.004399233    0.005146754   -0.013534594
      8        1          -0.000079038   -0.001182328    0.002533997
      9        6           0.007881538    0.005945111   -0.004852886
     10        1           0.000406389    0.000575260   -0.002437660
     11        1          -0.001030916    0.000107943    0.000865778
     12        1           0.000095493   -0.000635438   -0.000452588
     13        8          -0.002811350   -0.003371694    0.001110225
     14        1          -0.001581218    0.002220281    0.004301183
     15        7          -0.003398147   -0.008941929    0.003900340
     16        1           0.001296838    0.000878995    0.002199207
     17        1          -0.001242018    0.001079691    0.004530438
 -------------------------------------------------------------------
 Cartesian Forces:  Max     0.013534594 RMS     0.003824482

 GradGradGradGradGradGradGradGradGradGradGradGradGradGradGradGradGradGrad
 Berny optimization.
 FormGI is forming the generalized inverse of G from B-inverse, IUseBI=4.
 Internal  Forces:  Max     0.011137208 RMS     0.003296392
 Search for a local minimum.
 Step number   1 out of a maximum of   90
 All quantities printed in internal units (Hartrees-Bohrs-Radians)
 Mixed Optimization -- RFO/linear search
 Second derivative matrix not updated -- first step.
 ITU=  0
     Eigenvalues ---    0.00246   0.00392   0.00398   0.00778   0.01410
     Eigenvalues ---    0.03481   0.04075   0.04626   0.04713   0.04813
     Eigenvalues ---    0.04972   0.05474   0.05587   0.05716   0.05832
     Eigenvalues ---    0.08363   0.11619   0.12230   0.13880   0.16000
     Eigenvalues ---    0.16000   0.16000   0.16000   0.16000   0.16000
     Eigenvalues ---    0.16578   0.17892   0.21950   0.22026   0.28581
     Eigenvalues ---    0.29583   0.29624   0.33933   0.34043   0.34085
     Eigenvalues ---    0.34151   0.34168   0.34205   0.34272   0.34326
     Eigenvalues ---    0.35852   0.42270   0.43797   0.43983   0.50768
 RFO step:  Lambda=-5.79822270D-03 EMin= 2.46092612D-03
 Linear search not attempted -- first point.
 Iteration  1 RMS(Cart)=  0.06560293 RMS(Int)=  0.00190334
 Iteration  2 RMS(Cart)=  0.00257114 RMS(Int)=  0.00050869
 Iteration  3 RMS(Cart)=  0.00000470 RMS(Int)=  0.00050868
 Iteration  4 RMS(Cart)=  0.00000000 RMS(Int)=  0.00050868
 Variable       Old X    -DE/DX   Delta X   Delta X   Delta X     New X
                                 (Linear)    (Quad)   (Total)
    R1        2.06873   0.00519   0.00000   0.01489   0.01489   2.08362
    R2        2.06783   0.00061   0.00000   0.00175   0.00175   2.06957
    R3        2.88802   0.00550   0.00000   0.01824   0.01824   2.90626
    R4        2.68581   0.00528   0.00000   0.01232   0.01232   2.69813
    R5        2.07257   0.00085   0.00000   0.00245   0.00245   2.07502
    R6        2.07444   0.00065   0.00000   0.00190   0.00190   2.07634
    R7        2.90885  -0.00036   0.00000  -0.00123  -0.00123   2.90763
    R8        2.07187   0.00097   0.00000   0.00281   0.00281   2.07467
    R9        2.88719   0.00774   0.00000   0.02562   0.02562   2.91281
   R10        2.77613   0.01036   0.00000   0.02845   0.02845   2.80458
   R11        2.06986   0.00138   0.00000   0.00396   0.00396   2.07382
   R12        2.07076   0.00050   0.00000   0.00144   0.00144   2.07220
   R13        2.07047   0.00069   0.00000   0.00199   0.00199   2.07246
   R14        1.85798  -0.00434   0.00000  -0.00845  -0.00845   1.84953
   R15        1.93398  -0.00227   0.00000  -0.00512  -0.00512   1.92886
   R16        1.93174  -0.00293   0.00000  -0.00657  -0.00657   1.92517
    A1        1.88579   0.00087   0.00000  -0.01725  -0.01782   1.86797
    A2        1.94049  -0.00589   0.00000  -0.02948  -0.03067   1.90982
    A3        1.89567   0.00038   0.00000   0.03204   0.03199   1.92766
    A4        1.92098  -0.00152   0.00000  -0.01450  -0.01461   1.90637
    A5        1.87942  -0.00520   0.00000  -0.02845  -0.02805   1.85137
    A6        1.93958   0.01114   0.00000   0.05620   0.05603   1.99561
    A7        1.89267  -0.00011   0.00000   0.00732   0.00744   1.90011
    A8        1.90609  -0.00187   0.00000  -0.00593  -0.00594   1.90016
    A9        1.97450   0.00515   0.00000   0.02562   0.02560   2.00010
   A10        1.87325   0.00062   0.00000  -0.00663  -0.00673   1.86652
   A11        1.90388  -0.00284   0.00000  -0.01793  -0.01810   1.88578
   A12        1.91070  -0.00113   0.00000  -0.00398  -0.00406   1.90664
   A13        1.89910   0.00095   0.00000  -0.02523  -0.02619   1.87291
   A14        1.93323   0.00077   0.00000   0.02193   0.02177   1.95500
   A15        1.93527  -0.00665   0.00000  -0.02842  -0.03079   1.90448
   A16        1.89438  -0.00221   0.00000  -0.00728  -0.00639   1.88798
   A17        1.88569  -0.00188   0.00000  -0.03697  -0.03799   1.84770
   A18        1.91501   0.00894   0.00000   0.07383   0.07407   1.98907
   A19        1.93080   0.00349   0.00000   0.02397   0.02396   1.95476
   A20        1.94724  -0.00255   0.00000  -0.01843  -0.01841   1.92883
   A21        1.93779   0.00016   0.00000   0.00107   0.00095   1.93874
   A22        1.88281  -0.00056   0.00000  -0.00361  -0.00349   1.87932
   A23        1.87752  -0.00117   0.00000  -0.00120  -0.00134   1.87618
   A24        1.88513   0.00059   0.00000  -0.00191  -0.00199   1.88314
   A25        1.84140   0.00375   0.00000   0.02265   0.02265   1.86405
   A26        1.90411   0.00020   0.00000   0.01071   0.01029   1.91441
   A27        1.90265   0.00395   0.00000   0.03336   0.03296   1.93560
   A28        1.83154   0.00038   0.00000   0.02344   0.02262   1.85416
    D1       -1.16991   0.00281   0.00000   0.05776   0.05733  -1.11258
    D2        3.07717   0.00317   0.00000   0.06483   0.06449  -3.14153
    D3        0.94450   0.00247   0.00000   0.05679   0.05649   1.00100
    D4        0.91903  -0.00087   0.00000   0.00780   0.00800   0.92703
    D5       -1.11708  -0.00052   0.00000   0.01487   0.01516  -1.10192
    D6        3.03344  -0.00122   0.00000   0.00683   0.00717   3.04060
    D7        2.99943  -0.00127   0.00000  -0.00137  -0.00136   2.99807
    D8        0.96332  -0.00091   0.00000   0.00571   0.00580   0.96912
    D9       -1.16935  -0.00161   0.00000  -0.00233  -0.00219  -1.17154
   D10       -1.34442   0.00048   0.00000   0.03854   0.03750  -1.30692
   D11        2.90064   0.00205   0.00000   0.05731   0.05738   2.95802
   D12        0.79553   0.00056   0.00000   0.05959   0.06057   0.85610
   D13       -0.98680   0.00134   0.00000   0.05782   0.05763  -0.92917
   D14       -3.06786   0.00299   0.00000   0.06931   0.06908  -2.99878
   D15        1.08482  -0.00434   0.00000  -0.02015  -0.01954   1.06528
   D16        1.12126   0.00258   0.00000   0.07135   0.07100   1.19227
   D17       -0.95979   0.00423   0.00000   0.08284   0.08245  -0.87734
   D18       -3.09030  -0.00310   0.00000  -0.00662  -0.00617  -3.09646
   D19       -3.11689   0.00105   0.00000   0.05078   0.05057  -3.06632
   D20        1.08524   0.00269   0.00000   0.06228   0.06201   1.14725
   D21       -1.04527  -0.00464   0.00000  -0.02718  -0.02660  -1.07187
   D22        1.03589   0.00043   0.00000  -0.01530  -0.01613   1.01976
   D23       -1.06023   0.00047   0.00000  -0.01468  -0.01538  -1.07561
   D24        3.11915   0.00134   0.00000  -0.00046  -0.00120   3.11795
   D25       -1.04801   0.00018   0.00000   0.00703   0.00710  -1.04091
   D26        3.13906   0.00022   0.00000   0.00766   0.00785  -3.13627
   D27        1.03525   0.00109   0.00000   0.02188   0.02203   1.05729
   D28       -3.10498  -0.00136   0.00000   0.01384   0.01439  -3.09060
   D29        1.08209  -0.00131   0.00000   0.01446   0.01513   1.09722
   D30       -1.02172  -0.00045   0.00000   0.02868   0.02932  -0.99241
   D31        1.16898   0.00140   0.00000   0.05860   0.05774   1.22671
   D32       -3.12329   0.00407   0.00000   0.10985   0.10944  -3.01386
   D33       -3.03450  -0.00250   0.00000  -0.01171  -0.01122  -3.04572
   D34       -1.04359   0.00017   0.00000   0.03954   0.04048  -1.00310
   D35       -0.97213  -0.00122   0.00000  -0.00049  -0.00080  -0.97293
   D36        1.01878   0.00144   0.00000   0.05076   0.05090   1.06968
         Item               Value     Threshold  Converged?
 Maximum Force            0.011137     0.000450     NO 
 RMS     Force            0.003296     0.000300     NO 
 Maximum Displacement     0.323169     0.001800     NO 
 RMS     Displacement     0.065299     0.001200     NO 
 Predicted change in Energy=-3.131910D-03
 GradGradGradGradGradGradGradGradGradGradGradGradGradGradGradGradGradGrad

                          Input orientation:                          
 ---------------------------------------------------------------------
 Center     Atomic      Atomic             Coordinates (Angstroms)
 Number     Number       Type             X           Y           Z
 ---------------------------------------------------------------------
      1          6           0       -0.397601    1.023807    1.675706
      2          1           0        0.615874    1.038751    2.109737
      3          1           0       -0.878276    1.968597    1.950889
      4          6           0       -0.296626    0.934324    0.143709
      5          1           0        0.194591    1.841104   -0.233361
      6          1           0       -1.310689    0.920104   -0.279050
      7          6           0        0.486736   -0.283552   -0.376450
      8          1           0        1.463941   -0.281410    0.123934
      9          6           0        0.725326   -0.210364   -1.897507
     10          1           0        1.275112    0.695071   -2.184295
     11          1           0       -0.229642   -0.204776   -2.436445
     12          1           0        1.304960   -1.072936   -2.247847
     13          8           0       -1.181703   -0.007973    2.275032
     14          1           0       -0.867287   -0.855863    1.900684
     15          7           0       -0.193917   -1.525264    0.067928
     16          1           0       -1.075613   -1.632913   -0.434934
     17          1           0        0.364812   -2.346707   -0.157728
 ---------------------------------------------------------------------
                    Distance matrix (angstroms):
                    1          2          3          4          5
     1  C    0.000000
     2  H    1.102605   0.000000
     3  H    1.095172   1.767012   0.000000
     4  C    1.537927   2.169984   2.161929   0.000000
     5  H    2.159445   2.512242   2.436852   1.098055   0.000000
     6  H    2.159990   3.071161   2.501788   1.098750   1.765275
     7  C    2.588935   2.818916   3.514532   1.538650   2.149416
     8  H    2.752622   2.530901   3.726430   2.139626   2.498795
     9  C    3.943602   4.198842   4.704207   2.553676   2.694362
    10  H    4.219673   4.357915   4.833083   2.819079   2.507401
    11  H    4.295045   4.788427   4.938924   2.821211   3.036310
    12  H    4.763331   4.891074   5.625551   3.509090   3.712507
    13  O    1.427788   2.086680   2.025824   2.492754   3.406656
    14  H    1.950482   2.415166   2.824927   2.572428   3.599356
    15  N    3.020629   3.376228   4.027524   2.462898   3.402080
    16  H    3.460154   4.058851   4.324577   2.744514   3.704436
    17  H    3.911921   4.082371   4.961187   3.360585   4.191952
                    6          7          8          9         10
     6  H    0.000000
     7  C    2.165412   0.000000
     8  H    3.050345   1.097870   0.000000
     9  C    2.835968   1.541395   2.153329   0.000000
    10  H    3.219777   2.201714   2.513383   1.097418   0.000000
    11  H    2.662399   2.182426   3.070772   1.096562   1.771324
    12  H    3.832752   2.189691   2.505421   1.096697   1.769401
    13  O    2.720533   3.144835   3.420734   4.592146   5.139631
    14  H    2.846385   2.710397   2.986881   4.168854   4.866449
    15  N    2.710608   1.484118   2.073355   2.537105   3.487183
    16  H    2.568552   2.065219   2.930569   2.721424   3.742417
    17  H    3.673429   2.078296   2.356453   2.778626   3.766701
                   11         12         13         14         15
    11  H    0.000000
    12  H    1.773210   0.000000
    13  O    4.810735   5.270112   0.000000
    14  H    4.431839   4.687866   0.978730   0.000000
    15  N    2.831404   2.795362   2.854680   2.064102   0.000000
    16  H    2.600248   3.044234   3.161582   2.470288   1.020709
    17  H    3.183363   2.622016   3.712103   2.824490   1.018758
                   16         17
    16  H    0.000000
    17  H    1.631310   0.000000
 Stoichiometry    C4H11NO
 Framework group  C1[X(C4H11NO)]
 Deg. of freedom    45
 Full point group                 C1      NOp   1
 Largest Abelian subgroup         C1      NOp   1
 Largest concise Abelian subgroup C1      NOp   1
                         Standard orientation:                         
 ---------------------------------------------------------------------
 Center     Atomic      Atomic             Coordinates (Angstroms)
 Number     Number       Type             X           Y           Z
 ---------------------------------------------------------------------
      1          6           0        1.611308   -0.700843    0.227930
      2          1           0        1.630440   -0.809352    1.325016
      3          1           0        2.272377   -1.471704   -0.182146
      4          6           0        0.180399   -0.935878   -0.284395
      5          1           0       -0.109697   -1.971913   -0.064852
      6          1           0        0.171756   -0.825729   -1.377575
      7          6           0       -0.880105   -0.004051    0.327548
      8          1           0       -0.791455   -0.080637    1.419149
      9          6           0       -2.310940   -0.418176   -0.068821
     10          1           0       -2.542131   -1.445444    0.240367
     11          1           0       -2.440340   -0.360626   -1.156200
     12          1           0       -3.055016    0.240968    0.394456
     13          8           0        2.176697    0.551730   -0.159333
     14          1           0        1.512469    1.239085    0.051038
     15          7           0       -0.544327    1.401829   -0.009144
     16          1           0       -0.696914    1.562663   -1.005486
     17          1           0       -1.158756    2.049730    0.481336
 ---------------------------------------------------------------------
 Rotational constants (GHZ):      6.2614090      2.1865544      1.7545192
 Standard basis: 6-31+G(d,p) (6D, 7F)
 There are   169 symmetry adapted cartesian basis functions of A   symmetry.
 There are   169 symmetry adapted basis functions of A   symmetry.
   169 basis functions,   269 primitive gaussians,   169 cartesian basis functions
    25 alpha electrons       25 beta electrons
       nuclear repulsion energy       260.6698493985 Hartrees.
 NAtoms=   17 NActive=   17 NUniq=   17 SFac= 1.00D+00 NAtFMM=   60 NAOKFM=F Big=F
 Integral buffers will be    262144 words long.
 Raffenetti 2 integral format.
 Two-electron integral symmetry is turned on.
 One-electron integrals computed using PRISM.
 NBasis=   169 RedAO= T EigKep=  3.12D-05  NBF=   169
 NBsUse=   169 1.00D-06 EigRej= -1.00D+00 NBFU=   169
 Initial guess from the checkpoint file:  "C:\Users\Mrs\Desktop\chem\QM\molecule\mol.C1.chk"
 B after Tr=     0.000000    0.000000    0.000000
         Rot=    0.999901    0.000319    0.000270    0.014040 Ang=   1.61 deg.
 ExpMin= 4.38D-02 ExpMax= 5.48D+03 ExpMxC= 8.25D+02 IAcc=2 IRadAn=         4 AccDes= 0.00D+00
 Harris functional with IExCor=  402 and IRadAn=       4 diagonalized for initial guess.
 HarFok:  IExCor=  402 AccDes= 0.00D+00 IRadAn=         4 IDoV= 1 UseB2=F ITyADJ=14
 ICtDFT=  3500011 ScaDFX=  1.000000  1.000000  1.000000  1.000000
 FoFCou: FMM=F IPFlag=           0 FMFlag=      100000 FMFlg1=           0
         NFxFlg=           0 DoJE=T BraDBF=F KetDBF=T FulRan=T
         wScrn=  0.000000 ICntrl=     500 IOpCl=  0 I1Cent=   200000004 NGrid=           0
         NMat0=    1 NMatS0=      1 NMatT0=    0 NMatD0=    1 NMtDS0=    0 NMtDT0=    0
 Petite list used in FoFCou.
 Requested convergence on RMS density matrix=1.00D-08 within 128 cycles.
 Requested convergence on MAX density matrix=1.00D-06.
 Requested convergence on             energy=1.00D-06.
 No special actions if energy rises.
 SCF Done:  E(RB3LYP) =  -289.052419994     A.U. after   11 cycles
            NFock= 11  Conv=0.48D-08     -V/T= 2.0100
 Calling FoFJK, ICntrl=      2127 FMM=F ISym2X=0 I1Cent= 0 IOpClX= 0 NMat=1 NMatS=1 NMatT=0.
 ***** Axes restored to original set *****
 -------------------------------------------------------------------
 Center     Atomic                   Forces (Hartrees/Bohr)
 Number     Number              X              Y              Z
 -------------------------------------------------------------------
      1        6          -0.001365620   -0.001639571   -0.000024668
      2        1           0.000646477   -0.000442891   -0.000158579
      3        1          -0.000148482   -0.000247418    0.000204442
      4        6          -0.000480808   -0.002181578    0.000799545
      5        1          -0.000500218    0.000645614    0.001040863
      6        1          -0.000645762    0.000438583   -0.000452911
      7        6           0.000807032    0.000753007    0.000244595
      8        1           0.000912602   -0.000662603    0.000277180
      9        6          -0.000721459   -0.001087896    0.001224170
     10        1          -0.000494771   -0.000337162    0.001560991
     11        1          -0.000455853   -0.000034396   -0.000402049
     12        1          -0.000453565   -0.000151380    0.000478932
     13        8           0.002832124    0.000015187   -0.002661520
     14        1          -0.000914337    0.003760895   -0.001221954
     15        7           0.000483058    0.000067772   -0.002414315
     16        1           0.000073160    0.000179144    0.001198377
     17        1           0.000426422    0.000924693    0.000306902
 -------------------------------------------------------------------
 Cartesian Forces:  Max     0.003760895 RMS     0.001113340

 GradGradGradGradGradGradGradGradGradGradGradGradGradGradGradGradGradGrad
 Berny optimization.
 Using GEDIIS/GDIIS optimizer.
 FormGI is forming the generalized inverse of G from B-inverse, IUseBI=4.
 Internal  Forces:  Max     0.005466391 RMS     0.001438330
 Search for a local minimum.
 Step number   2 out of a maximum of   90
 All quantities printed in internal units (Hartrees-Bohrs-Radians)
 Mixed Optimization -- RFO/linear search
 Update second derivatives using D2CorX and points    1    2
 DE= -2.05D-03 DEPred=-3.13D-03 R= 6.54D-01
 TightC=F SS=  1.41D+00  RLast= 3.02D-01 DXNew= 5.0454D-01 9.0523D-01
 Trust test= 6.54D-01 RLast= 3.02D-01 DXMaxT set to 5.05D-01
 ITU=  1  0
 Use linear search instead of GDIIS.
     Eigenvalues ---    0.00259   0.00397   0.00400   0.00794   0.01484
     Eigenvalues ---    0.03338   0.03716   0.04190   0.04644   0.04716
     Eigenvalues ---    0.04806   0.05444   0.05577   0.05921   0.06005
     Eigenvalues ---    0.08656   0.11804   0.12405   0.13629   0.15895
     Eigenvalues ---    0.16000   0.16000   0.16000   0.16000   0.16187
     Eigenvalues ---    0.16979   0.18504   0.21977   0.24473   0.28578
     Eigenvalues ---    0.29576   0.31184   0.33857   0.33995   0.34050
     Eigenvalues ---    0.34130   0.34170   0.34181   0.34285   0.34331
     Eigenvalues ---    0.36041   0.43714   0.43898   0.43946   0.50592
 RFO step:  Lambda=-7.36672079D-04 EMin= 2.59059391D-03
 Quartic linear search produced a step of -0.21921.
 Iteration  1 RMS(Cart)=  0.08274855 RMS(Int)=  0.00199853
 Iteration  2 RMS(Cart)=  0.00309972 RMS(Int)=  0.00010993
 Iteration  3 RMS(Cart)=  0.00000477 RMS(Int)=  0.00010986
 Iteration  4 RMS(Cart)=  0.00000000 RMS(Int)=  0.00010986
 Variable       Old X    -DE/DX   Delta X   Delta X   Delta X     New X
                                 (Linear)    (Quad)   (Total)
    R1        2.08362   0.00052  -0.00326   0.00694   0.00367   2.08729
    R2        2.06957  -0.00010  -0.00038   0.00045   0.00006   2.06964
    R3        2.90626  -0.00383  -0.00400  -0.00306  -0.00706   2.89920
    R4        2.69813  -0.00539  -0.00270  -0.00522  -0.00792   2.69021
    R5        2.07502  -0.00005  -0.00054   0.00083   0.00029   2.07531
    R6        2.07634   0.00077  -0.00042   0.00250   0.00208   2.07842
    R7        2.90763  -0.00028   0.00027  -0.00124  -0.00097   2.90666
    R8        2.07467   0.00094  -0.00062   0.00324   0.00262   2.07729
    R9        2.91281  -0.00323  -0.00562   0.00138  -0.00423   2.90858
   R10        2.80458  -0.00172  -0.00624   0.00724   0.00100   2.80558
   R11        2.07382  -0.00092  -0.00087  -0.00058  -0.00145   2.07237
   R12        2.07220   0.00059  -0.00032   0.00191   0.00159   2.07379
   R13        2.07246  -0.00028  -0.00044   0.00013  -0.00031   2.07215
   R14        1.84953  -0.00307   0.00185  -0.00800  -0.00615   1.84339
   R15        1.92886  -0.00067   0.00112  -0.00318  -0.00206   1.92680
   R16        1.92517  -0.00057   0.00144  -0.00356  -0.00212   1.92306
    A1        1.86797  -0.00026   0.00391  -0.00050   0.00354   1.87151
    A2        1.90982   0.00036   0.00672  -0.01410  -0.00711   1.90270
    A3        1.92766   0.00221  -0.00701   0.01565   0.00859   1.93625
    A4        1.90637   0.00229   0.00320   0.00670   0.00994   1.91631
    A5        1.85137   0.00120   0.00615  -0.00749  -0.00140   1.84997
    A6        1.99561  -0.00547  -0.01228   0.00003  -0.01223   1.98338
    A7        1.90011   0.00047  -0.00163   0.00181   0.00017   1.90028
    A8        1.90016   0.00074   0.00130  -0.00261  -0.00130   1.89886
    A9        2.00010  -0.00338  -0.00561  -0.00289  -0.00849   1.99161
   A10        1.86652  -0.00063   0.00147  -0.00231  -0.00084   1.86568
   A11        1.88578   0.00164   0.00397   0.00179   0.00578   1.89156
   A12        1.90664   0.00132   0.00089   0.00423   0.00512   1.91176
   A13        1.87291   0.00027   0.00574  -0.00299   0.00294   1.87585
   A14        1.95500  -0.00021  -0.00477   0.00734   0.00259   1.95759
   A15        1.90448   0.00075   0.00675  -0.00938  -0.00212   1.90235
   A16        1.88798   0.00045   0.00140   0.00076   0.00196   1.88995
   A17        1.84770  -0.00042   0.00833  -0.02010  -0.01154   1.83616
   A18        1.98907  -0.00080  -0.01624   0.02159   0.00531   1.99438
   A19        1.95476  -0.00195  -0.00525  -0.00084  -0.00609   1.94867
   A20        1.92883   0.00062   0.00403  -0.00373   0.00029   1.92913
   A21        1.93874  -0.00036  -0.00021  -0.00116  -0.00135   1.93739
   A22        1.87932   0.00064   0.00076   0.00131   0.00205   1.88137
   A23        1.87618   0.00114   0.00029   0.00432   0.00464   1.88082
   A24        1.88314   0.00002   0.00044   0.00041   0.00087   1.88401
   A25        1.86405  -0.00354  -0.00496  -0.00853  -0.01349   1.85056
   A26        1.91441   0.00107  -0.00226   0.01158   0.00937   1.92378
   A27        1.93560  -0.00115  -0.00722   0.00937   0.00219   1.93780
   A28        1.85416   0.00051  -0.00496   0.01554   0.01067   1.86483
    D1       -1.11258  -0.00099  -0.01257  -0.02752  -0.03997  -1.15255
    D2       -3.14153  -0.00090  -0.01414  -0.02432  -0.03835   3.10330
    D3        1.00100  -0.00082  -0.01238  -0.02583  -0.03812   0.96287
    D4        0.92703   0.00021  -0.00175  -0.03232  -0.03411   0.89292
    D5       -1.10192   0.00030  -0.00332  -0.02912  -0.03249  -1.13442
    D6        3.04060   0.00038  -0.00157  -0.03062  -0.03226   3.00834
    D7        2.99807  -0.00017   0.00030  -0.03710  -0.03684   2.96124
    D8        0.96912  -0.00008  -0.00127  -0.03390  -0.03522   0.93390
    D9       -1.17154   0.00000   0.00048  -0.03540  -0.03499  -1.20653
   D10       -1.30692   0.00004  -0.00822  -0.03393  -0.04189  -1.34881
   D11        2.95802  -0.00142  -0.01258  -0.03701  -0.04960   2.90842
   D12        0.85610  -0.00184  -0.01328  -0.04021  -0.05374   0.80236
   D13       -0.92917  -0.00023  -0.01263  -0.08380  -0.09639  -1.02556
   D14       -2.99878  -0.00083  -0.01514  -0.08707  -0.10216  -3.10094
   D15        1.06528  -0.00020   0.00428  -0.11355  -0.10940   0.95588
   D16        1.19227  -0.00067  -0.01556  -0.08208  -0.09757   1.09470
   D17       -0.87734  -0.00127  -0.01807  -0.08534  -0.10335  -0.98069
   D18       -3.09646  -0.00064   0.00135  -0.11182  -0.11059   3.07613
   D19       -3.06632   0.00018  -0.01109  -0.08159  -0.09261   3.12426
   D20        1.14725  -0.00043  -0.01359  -0.08486  -0.09838   1.04887
   D21       -1.07187   0.00020   0.00583  -0.11134  -0.10563  -1.17749
   D22        1.01976   0.00017   0.00354   0.00626   0.00998   1.02973
   D23       -1.07561   0.00024   0.00337   0.00770   0.01123  -1.06438
   D24        3.11795   0.00005   0.00026   0.01040   0.01082   3.12877
   D25       -1.04091  -0.00033  -0.00156   0.00514   0.00357  -1.03733
   D26       -3.13627  -0.00026  -0.00172   0.00658   0.00482  -3.13145
   D27        1.05729  -0.00045  -0.00483   0.00928   0.00442   1.06170
   D28       -3.09060   0.00037  -0.00315   0.01676   0.01348  -3.07711
   D29        1.09722   0.00044  -0.00332   0.01820   0.01473   1.11196
   D30       -0.99241   0.00025  -0.00643   0.02089   0.01433  -0.97808
   D31        1.22671  -0.00066  -0.01266   0.00074  -0.01176   1.21496
   D32       -3.01386  -0.00007  -0.02399   0.03245   0.00857  -3.00529
   D33       -3.04572  -0.00020   0.00246  -0.01760  -0.01526  -3.06097
   D34       -1.00310   0.00039  -0.00887   0.01411   0.00507  -0.99804
   D35       -0.97293  -0.00037   0.00018  -0.01772  -0.01750  -0.99044
   D36        1.06968   0.00021  -0.01116   0.01399   0.00282   1.07250
         Item               Value     Threshold  Converged?
 Maximum Force            0.005466     0.000450     NO 
 RMS     Force            0.001438     0.000300     NO 
 Maximum Displacement     0.296387     0.001800     NO 
 RMS     Displacement     0.082866     0.001200     NO 
 Predicted change in Energy=-5.267951D-04
 GradGradGradGradGradGradGradGradGradGradGradGradGradGradGradGradGradGrad

                          Input orientation:                          
 ---------------------------------------------------------------------
 Center     Atomic      Atomic             Coordinates (Angstroms)
 Number     Number       Type             X           Y           Z
 ---------------------------------------------------------------------
      1          6           0       -0.407852    0.993919    1.674071
      2          1           0        0.595174    0.935040    2.132873
      3          1           0       -0.849837    1.947582    1.981725
      4          6           0       -0.262121    0.957290    0.147256
      5          1           0        0.254076    1.868847   -0.182389
      6          1           0       -1.264520    0.976290   -0.304970
      7          6           0        0.517280   -0.259193   -0.380541
      8          1           0        1.516298   -0.235288    0.077452
      9          6           0        0.686141   -0.221568   -1.909941
     10          1           0        1.216045    0.681352   -2.236411
     11          1           0       -0.292848   -0.233580   -2.405654
     12          1           0        1.254824   -1.089663   -2.264058
     13          8           0       -1.263734   -0.019793    2.190293
     14          1           0       -1.001754   -0.846597    1.743843
     15          7           0       -0.116929   -1.499427    0.133054
     16          1           0       -1.026522   -1.638173   -0.306284
     17          1           0        0.446279   -2.317037   -0.090320
 ---------------------------------------------------------------------
                    Distance matrix (angstroms):
                    1          2          3          4          5
     1  C    0.000000
     2  H    1.104548   0.000000
     3  H    1.095206   1.770917   0.000000
     4  C    1.534192   2.162898   2.165956   0.000000
     5  H    2.156407   2.519679   2.430682   1.098209   0.000000
     6  H    2.156571   3.066471   2.518798   1.099851   1.765735
     7  C    2.578292   2.783794   3.509867   1.538137   2.153392
     8  H    2.786126   2.538285   3.740291   2.142403   2.467409
     9  C    3.939464   4.205991   4.712696   2.553618   2.746080
    10  H    4.245776   4.420462   4.864553   2.818330   2.560183
    11  H    4.261941   4.769957   4.931207   2.817173   3.108414
    12  H    4.755488   4.885444   5.628599   3.507930   3.753349
    13  O    1.423598   2.090584   2.021231   2.476272   3.391214
    14  H    1.935223   2.423996   2.808399   2.519952   3.558247
    15  N    2.945530   3.230015   3.979524   2.461045   3.403296
    16  H    3.351487   3.898821   4.257210   2.743435   3.735569
    17  H    3.847733   3.942177   4.915309   3.358495   4.191307
                    6          7          8          9         10
     6  H    0.000000
     7  C    2.169549   0.000000
     8  H    3.057306   1.099257   0.000000
     9  C    2.795689   1.539154   2.153852   0.000000
    10  H    3.157635   2.194801   2.506859   1.096652   0.000000
    11  H    2.611668   2.181295   3.072267   1.097404   1.772710
    12  H    3.801747   2.186616   2.506191   1.096535   1.771655
    13  O    2.686731   3.136640   3.498445   4.544738   5.122169
    14  H    2.754923   2.676848   3.080770   4.073057   4.805797
    15  N    2.763695   1.484649   2.066052   2.540015   3.485252
    16  H    2.625273   2.071334   2.929381   2.740748   3.759613
    17  H    3.717380   2.079422   2.346650   2.785597   3.766774
                   11         12         13         14         15
    11  H    0.000000
    12  H    1.774321   0.000000
    13  O    4.702240   5.227715   0.000000
    14  H    4.254017   4.605920   0.975478   0.000000
    15  N    2.842245   2.792089   2.781495   1.950319   0.000000
    16  H    2.630307   3.055861   2.984681   2.197777   1.019621
    17  H    3.201230   2.623991   3.660966   2.761004   1.017637
                   16         17
    16  H    0.000000
    17  H    1.636044   0.000000
 Stoichiometry    C4H11NO
 Framework group  C1[X(C4H11NO)]
 Deg. of freedom    45
 Full point group                 C1      NOp   1
 Largest Abelian subgroup         C1      NOp   1
 Largest concise Abelian subgroup C1      NOp   1
                         Standard orientation:                         
 ---------------------------------------------------------------------
 Center     Atomic      Atomic             Coordinates (Angstroms)
 Number     Number       Type             X           Y           Z
 ---------------------------------------------------------------------
      1          6           0        1.599993   -0.679272    0.259105
      2          1           0        1.608493   -0.694197    1.363520
      3          1           0        2.276377   -1.470565   -0.081239
      4          6           0        0.175629   -0.965633   -0.233775
      5          1           0       -0.094069   -1.995026    0.037658
      6          1           0        0.163019   -0.910945   -1.332193
      7          6           0       -0.890571   -0.017438    0.340689
      8          1           0       -0.861065   -0.111962    1.435477
      9          6           0       -2.308024   -0.379863   -0.137298
     10          1           0       -2.582272   -1.402486    0.148490
     11          1           0       -2.375915   -0.307440   -1.230202
     12          1           0       -3.053625    0.299168    0.293265
     13          8           0        2.141503    0.540106   -0.237398
     14          1           0        1.441680    1.210544   -0.126410
     15          7           0       -0.491861    1.384869    0.060064
     16          1           0       -0.567141    1.579734   -0.937927
     17          1           0       -1.106640    2.041488    0.535967
 ---------------------------------------------------------------------
 Rotational constants (GHZ):      6.2865988      2.2195872      1.7863823
 Standard basis: 6-31+G(d,p) (6D, 7F)
 There are   169 symmetry adapted cartesian basis functions of A   symmetry.
 There are   169 symmetry adapted basis functions of A   symmetry.
   169 basis functions,   269 primitive gaussians,   169 cartesian basis functions
    25 alpha electrons       25 beta electrons
       nuclear repulsion energy       261.8258626755 Hartrees.
 NAtoms=   17 NActive=   17 NUniq=   17 SFac= 1.00D+00 NAtFMM=   60 NAOKFM=F Big=F
 Integral buffers will be    262144 words long.
 Raffenetti 2 integral format.
 Two-electron integral symmetry is turned on.
 One-electron integrals computed using PRISM.
 NBasis=   169 RedAO= T EigKep=  3.01D-05  NBF=   169
 NBsUse=   169 1.00D-06 EigRej= -1.00D+00 NBFU=   169
 Initial guess from the checkpoint file:  "C:\Users\Mrs\Desktop\chem\QM\molecule\mol.C1.chk"
 B after Tr=     0.000000    0.000000    0.000000
         Rot=    0.999982    0.004010    0.001956    0.004030 Ang=   0.69 deg.
 ExpMin= 4.38D-02 ExpMax= 5.48D+03 ExpMxC= 8.25D+02 IAcc=2 IRadAn=         4 AccDes= 0.00D+00
 Harris functional with IExCor=  402 and IRadAn=       4 diagonalized for initial guess.
 HarFok:  IExCor=  402 AccDes= 0.00D+00 IRadAn=         4 IDoV= 1 UseB2=F ITyADJ=14
 ICtDFT=  3500011 ScaDFX=  1.000000  1.000000  1.000000  1.000000
 FoFCou: FMM=F IPFlag=           0 FMFlag=      100000 FMFlg1=           0
         NFxFlg=           0 DoJE=T BraDBF=F KetDBF=T FulRan=T
         wScrn=  0.000000 ICntrl=     500 IOpCl=  0 I1Cent=   200000004 NGrid=           0
         NMat0=    1 NMatS0=      1 NMatT0=    0 NMatD0=    1 NMtDS0=    0 NMtDT0=    0
 Petite list used in FoFCou.
 Requested convergence on RMS density matrix=1.00D-08 within 128 cycles.
 Requested convergence on MAX density matrix=1.00D-06.
 Requested convergence on             energy=1.00D-06.
 No special actions if energy rises.
 SCF Done:  E(RB3LYP) =  -289.051857051     A.U. after   11 cycles
            NFock= 11  Conv=0.20D-08     -V/T= 2.0099
 Calling FoFJK, ICntrl=      2127 FMM=F ISym2X=0 I1Cent= 0 IOpClX= 0 NMat=1 NMatS=1 NMatT=0.
 ***** Axes restored to original set *****
 -------------------------------------------------------------------
 Center     Atomic                   Forces (Hartrees/Bohr)
 Number     Number              X              Y              Z
 -------------------------------------------------------------------
      1        6          -0.000179286   -0.000148602    0.000896808
      2        1          -0.000730929   -0.000583529    0.000364949
      3        1           0.000514894    0.000291566   -0.000371754
      4        6          -0.000784273   -0.000569001   -0.000288967
      5        1          -0.000327901    0.000060592   -0.000008011
      6        1          -0.000060045    0.000223320   -0.000283920
      7        6           0.001408798    0.000050716    0.002272718
      8        1           0.000017644    0.000134328   -0.000180842
      9        6          -0.001475081   -0.001464349    0.001259302
     10        1          -0.000210948   -0.000099871    0.000971516
     11        1           0.000175826   -0.000020039   -0.000253311
     12        1          -0.000152991    0.000096716    0.000172286
     13        8          -0.001440915    0.002597321   -0.000532693
     14        1           0.004139262   -0.000365053    0.002080814
     15        7          -0.001448920    0.000291233   -0.004136174
     16        1           0.000499827   -0.000674168   -0.002407111
     17        1           0.000055038    0.000178821    0.000444390
 -------------------------------------------------------------------
 Cartesian Forces:  Max     0.004139262 RMS     0.001209554

 GradGradGradGradGradGradGradGradGradGradGradGradGradGradGradGradGradGrad
 Berny optimization.
 Using GEDIIS/GDIIS optimizer.
 FormGI is forming the generalized inverse of G from B-inverse, IUseBI=4.
 Internal  Forces:  Max     0.005635580 RMS     0.001828904
 Search for a local minimum.
 Step number   3 out of a maximum of   90
 All quantities printed in internal units (Hartrees-Bohrs-Radians)
 Mixed Optimization -- RFO/linear search
 Update second derivatives using D2CorX and points    1    3    2
 DE=  5.63D-04 DEPred=-5.27D-04 R=-1.07D+00
 Trust test=-1.07D+00 RLast= 3.40D-01 DXMaxT set to 2.52D-01
 ITU= -1  1  0
 Use linear search instead of GDIIS.
 Energy rises -- skip Quadratic/GDIIS search.
 Quartic linear search produced a step of -0.65705.
 Iteration  1 RMS(Cart)=  0.05445947 RMS(Int)=  0.00087585
 Iteration  2 RMS(Cart)=  0.00134198 RMS(Int)=  0.00000464
 Iteration  3 RMS(Cart)=  0.00000086 RMS(Int)=  0.00000458
 Variable       Old X    -DE/DX   Delta X   Delta X   Delta X     New X
                                 (Linear)    (Quad)   (Total)
    R1        2.08729  -0.00048  -0.00241   0.00000  -0.00241   2.08488
    R2        2.06964  -0.00006  -0.00004   0.00000  -0.00004   2.06960
    R3        2.89920   0.00225   0.00464   0.00000   0.00464   2.90384
    R4        2.69021  -0.00265   0.00520   0.00000   0.00520   2.69541
    R5        2.07531  -0.00010  -0.00019   0.00000  -0.00019   2.07512
    R6        2.07842   0.00018  -0.00137   0.00000  -0.00137   2.07705
    R7        2.90666   0.00125   0.00064   0.00000   0.00064   2.90729
    R8        2.07729  -0.00006  -0.00172   0.00000  -0.00172   2.07557
    R9        2.90858  -0.00235   0.00278   0.00000   0.00278   2.91136
   R10        2.80558  -0.00156  -0.00066   0.00000  -0.00066   2.80492
   R11        2.07237  -0.00047   0.00095   0.00000   0.00095   2.07332
   R12        2.07379  -0.00004  -0.00105   0.00000  -0.00105   2.07275
   R13        2.07215  -0.00021   0.00020   0.00000   0.00020   2.07235
   R14        1.84339   0.00047   0.00404   0.00000   0.00404   1.84742
   R15        1.92680   0.00068   0.00135   0.00000   0.00135   1.92816
   R16        1.92306  -0.00021   0.00139   0.00000   0.00139   1.92445
    A1        1.87151   0.00036  -0.00233   0.00000  -0.00233   1.86919
    A2        1.90270   0.00082   0.00467   0.00000   0.00467   1.90738
    A3        1.93625  -0.00331  -0.00564   0.00000  -0.00563   1.93062
    A4        1.91631  -0.00292  -0.00653   0.00000  -0.00654   1.90978
    A5        1.84997   0.00017   0.00092   0.00000   0.00091   1.85088
    A6        1.98338   0.00460   0.00803   0.00000   0.00804   1.99142
    A7        1.90028  -0.00366  -0.00011   0.00000  -0.00011   1.90017
    A8        1.89886   0.00032   0.00085   0.00000   0.00085   1.89971
    A9        1.99161   0.00564   0.00558   0.00000   0.00558   1.99719
   A10        1.86568   0.00067   0.00055   0.00000   0.00056   1.86624
   A11        1.89156  -0.00059  -0.00380   0.00000  -0.00380   1.88776
   A12        1.91176  -0.00267  -0.00336   0.00000  -0.00336   1.90840
   A13        1.87585  -0.00113  -0.00193   0.00000  -0.00193   1.87393
   A14        1.95759  -0.00014  -0.00170   0.00000  -0.00170   1.95589
   A15        1.90235   0.00391   0.00139   0.00000   0.00140   1.90375
   A16        1.88995   0.00090  -0.00129   0.00000  -0.00129   1.88866
   A17        1.83616   0.00157   0.00758   0.00000   0.00758   1.84374
   A18        1.99438  -0.00489  -0.00349   0.00000  -0.00349   1.99089
   A19        1.94867  -0.00136   0.00400   0.00000   0.00400   1.95268
   A20        1.92913   0.00070  -0.00019   0.00000  -0.00019   1.92893
   A21        1.93739  -0.00001   0.00089   0.00000   0.00089   1.93828
   A22        1.88137   0.00029  -0.00135   0.00000  -0.00135   1.88002
   A23        1.88082   0.00058  -0.00305   0.00000  -0.00305   1.87777
   A24        1.88401  -0.00016  -0.00057   0.00000  -0.00057   1.88343
   A25        1.85056  -0.00308   0.00886   0.00000   0.00886   1.85942
   A26        1.92378  -0.00154  -0.00616   0.00000  -0.00615   1.91763
   A27        1.93780   0.00005  -0.00144   0.00000  -0.00143   1.93636
   A28        1.86483  -0.00012  -0.00701   0.00000  -0.00699   1.85784
    D1       -1.15255   0.00037   0.02627   0.00000   0.02626  -1.12629
    D2        3.10330   0.00139   0.02520   0.00000   0.02519   3.12850
    D3        0.96287   0.00072   0.02505   0.00000   0.02504   0.98792
    D4        0.89292  -0.00040   0.02242   0.00000   0.02241   0.91533
    D5       -1.13442   0.00062   0.02135   0.00000   0.02135  -1.11307
    D6        3.00834  -0.00005   0.02120   0.00000   0.02120   3.02954
    D7        2.96124   0.00077   0.02420   0.00000   0.02421   2.98545
    D8        0.93390   0.00179   0.02314   0.00000   0.02314   0.95705
    D9       -1.20653   0.00112   0.02299   0.00000   0.02300  -1.18353
   D10       -1.34881   0.00152   0.02752   0.00000   0.02752  -1.32129
   D11        2.90842   0.00267   0.03259   0.00000   0.03259   2.94101
   D12        0.80236   0.00346   0.03531   0.00000   0.03532   0.83767
   D13       -1.02556   0.00182   0.06333   0.00000   0.06333  -0.96223
   D14       -3.10094   0.00152   0.06712   0.00000   0.06713  -3.03381
   D15        0.95588   0.00500   0.07188   0.00000   0.07188   1.02777
   D16        1.09470   0.00044   0.06411   0.00000   0.06411   1.15881
   D17       -0.98069   0.00014   0.06790   0.00000   0.06791  -0.91278
   D18        3.07613   0.00362   0.07266   0.00000   0.07267  -3.13439
   D19        3.12426  -0.00054   0.06085   0.00000   0.06084  -3.09809
   D20        1.04887  -0.00084   0.06464   0.00000   0.06464   1.11351
   D21       -1.17749   0.00264   0.06940   0.00000   0.06940  -1.10809
   D22        1.02973  -0.00068  -0.00656   0.00000  -0.00655   1.02318
   D23       -1.06438  -0.00062  -0.00738   0.00000  -0.00737  -1.07176
   D24        3.12877  -0.00087  -0.00711   0.00000  -0.00711   3.12166
   D25       -1.03733   0.00022  -0.00235   0.00000  -0.00235  -1.03968
   D26       -3.13145   0.00028  -0.00317   0.00000  -0.00317  -3.13462
   D27        1.06170   0.00002  -0.00290   0.00000  -0.00290   1.05880
   D28       -3.07711   0.00058  -0.00886   0.00000  -0.00886  -3.08597
   D29        1.11196   0.00064  -0.00968   0.00000  -0.00968   1.10228
   D30       -0.97808   0.00039  -0.00942   0.00000  -0.00942  -0.98749
   D31        1.21496   0.00070   0.00773   0.00000   0.00773   1.22269
   D32       -3.00529  -0.00038  -0.00563   0.00000  -0.00563  -3.01092
   D33       -3.06097   0.00200   0.01002   0.00000   0.01003  -3.05095
   D34       -0.99804   0.00091  -0.00333   0.00000  -0.00334  -1.00138
   D35       -0.99044   0.00142   0.01150   0.00000   0.01151  -0.97893
   D36        1.07250   0.00034  -0.00186   0.00000  -0.00186   1.07064
         Item               Value     Threshold  Converged?
 Maximum Force            0.005636     0.000450     NO 
 RMS     Force            0.001829     0.000300     NO 
 Maximum Displacement     0.196006     0.001800     NO 
 RMS     Displacement     0.054471     0.001200     NO 
 Predicted change in Energy=-2.505261D-04
 GradGradGradGradGradGradGradGradGradGradGradGradGradGradGradGradGradGrad

                          Input orientation:                          
 ---------------------------------------------------------------------
 Center     Atomic      Atomic             Coordinates (Angstroms)
 Number     Number       Type             X           Y           Z
 ---------------------------------------------------------------------
      1          6           0       -0.400998    1.013806    1.675332
      2          1           0        0.609360    1.003657    2.118370
      3          1           0       -0.868399    1.962088    1.961207
      4          6           0       -0.284731    0.942399    0.144756
      5          1           0        0.215136    1.851050   -0.216253
      6          1           0       -1.294954    0.939345   -0.288282
      7          6           0        0.497396   -0.274999   -0.377855
      8          1           0        1.482311   -0.265209    0.108159
      9          6           0        0.712057   -0.214065   -1.902236
     10          1           0        1.255145    0.690617   -2.202827
     11          1           0       -0.251384   -0.214707   -2.426510
     12          1           0        1.287984   -1.078518   -2.253877
     13          8           0       -1.210174   -0.012595    2.246481
     14          1           0       -0.914188   -0.854609    1.847565
     15          7           0       -0.167674   -1.516489    0.090687
     16          1           0       -1.059467   -1.635096   -0.390691
     17          1           0        0.392581   -2.336675   -0.134024
 ---------------------------------------------------------------------
                    Distance matrix (angstroms):
                    1          2          3          4          5
     1  C    0.000000
     2  H    1.103271   0.000000
     3  H    1.095183   1.768350   0.000000
     4  C    1.536646   2.167557   2.163314   0.000000
     5  H    2.158400   2.514747   2.434689   1.098108   0.000000
     6  H    2.158815   3.069613   2.507619   1.099128   1.765436
     7  C    2.585287   2.806891   3.512999   1.538474   2.150783
     8  H    2.763831   2.532392   3.731015   2.140582   2.487876
     9  C    3.942785   4.202222   4.707407   2.553658   2.711857
    10  H    4.229347   4.380386   4.844096   2.818822   2.524817
    11  H    4.284476   4.783432   4.936719   2.819825   3.061082
    12  H    4.761215   4.890044   5.626918   3.508700   3.726296
    13  O    1.426351   2.088033   2.024244   2.487108   3.401432
    14  H    1.945252   2.418199   2.819360   2.554410   3.585430
    15  N    2.994651   3.326622   4.011279   2.462266   3.403097
    16  H    3.423260   4.005419   4.302052   2.744156   3.715945
    17  H    3.889635   4.034611   4.945647   3.359880   4.192288
                    6          7          8          9         10
     6  H    0.000000
     7  C    2.166835   0.000000
     8  H    3.053083   1.098346   0.000000
     9  C    2.821932   1.540626   2.153508   0.000000
    10  H    3.198493   2.199345   2.511148   1.097155   0.000000
    11  H    2.644408   2.182039   3.071286   1.096851   1.771800
    12  H    3.821898   2.188637   2.505684   1.096641   1.770176
    13  O    2.708949   3.141941   3.447566   4.576835   5.135041
    14  H    2.815155   2.698335   3.019293   4.137146   4.847618
    15  N    2.728645   1.484300   2.070859   2.538105   3.486536
    16  H    2.587216   2.067329   2.930200   2.728075   3.748360
    17  H    3.688344   2.078689   2.353112   2.781027   3.766757
                   11         12         13         14         15
    11  H    0.000000
    12  H    1.773591   0.000000
    13  O    4.774618   5.256445   0.000000
    14  H    4.372242   4.660635   0.977614   0.000000
    15  N    2.835123   2.794233   2.827712   2.020393   0.000000
    16  H    2.610567   3.048240   3.099983   2.374879   1.020336
    17  H    3.189503   2.622686   3.692828   2.798367   1.018374
                   16         17
    16  H    0.000000
    17  H    1.632952   0.000000
 Stoichiometry    C4H11NO
 Framework group  C1[X(C4H11NO)]
 Deg. of freedom    45
 Full point group                 C1      NOp   1
 Largest Abelian subgroup         C1      NOp   1
 Largest concise Abelian subgroup C1      NOp   1
                         Standard orientation:                         
 ---------------------------------------------------------------------
 Center     Atomic      Atomic             Coordinates (Angstroms)
 Number     Number       Type             X           Y           Z
[...]
 GradGradGradGradGradGradGradGradGradGradGradGradGradGradGradGradGradGrad

 1|1|UNPC-DESKTOP-IHT48U5|Freq|RB3LYP|6-31+G(d,p)|C4H11N1O1|MRS|25-Jun-
 2023|0||#N Geom=AllCheck Guess=TCheck SCRF=Check GenChk RB3LYP/6-31+G(
 d,p) Freq||M0001||0,1|C,-0.3964171701,1.0190977755,1.6751839017|H,0.61
 9575487,1.0131948921,2.1076128843|H,-0.8660627226,1.9645611061,1.96699
 9495|C,-0.2925365358,0.9435487031,0.1464438011|H,0.2013319368,1.854857
 9055,-0.2165232909|H,-1.3048778459,0.9383007828,-0.2834907871|C,0.4905
 240179,-0.2748695981,-0.3714021478|H,1.4736954007,-0.2732454154,0.1199
 028807|C,0.7073639463,-0.2165006969,-1.8906917368|H,1.2646841744,0.682
 0940061,-2.1794355467|H,-0.2539797473,-0.1999913215,-2.4194673535|H,1.
 2705475948,-1.08925986,-2.2408623307|O,-1.187380439,-0.0166500351,2.24
 12041709|H,-0.8953691273,-0.842992705,1.808710073|N,-0.1807748962,-1.5
 178213201,0.078952878|H,-1.0515021645,-1.6534027126,-0.4338115347|H,0.
 4011781006,-2.3309215165,-0.1093253664||Version=IA32W-G09RevD.01|State
 =1-A|HF=-289.0527967|RMSD=1.885e-009|RMSF=1.607e-005|ZeroPoint=0.15542
 12|Thermal=0.1627341|Dipole=0.6987753,-0.2176408,-1.275397|DipoleDeriv
 =0.5223086,0.217969,-0.0583915,0.2506688,0.6018077,-0.18297,-0.0914644
 ,-0.1037463,0.481667,-0.2406412,-0.082866,-0.0835447,-0.0130215,-0.001
 3529,0.0360093,-0.0530486,0.0046469,-0.0435352,0.0014465,0.0951234,0.0
 564638,0.0502136,-0.1452274,-0.0614308,0.0382314,-0.0531506,-0.0204472
 ,0.1147667,0.0102016,0.0290475,0.0076951,0.0354148,0.0189514,0.0867405
 ,0.0002333,-0.1015474,0.0065649,-0.0948991,0.0610037,-0.0608968,-0.112
 063,0.0554861,0.041467,0.0584958,-0.0017446,-0.1226453,0.0250794,-0.08
 21462,-0.0207184,0.0392946,-0.045513,-0.0793373,-0.0170026,-0.0246206,
 0.2613943,0.1129657,-0.1506335,0.1215828,0.472142,-0.1448465,-0.076851
 8,-0.0317371,0.3898581,-0.1292244,-0.0106898,-0.0555764,-0.0004815,-0.
 012366,0.0047576,-0.0882268,0.0157237,-0.0509843,0.1094652,-0.0225616,
 0.0817236,-0.0138369,0.0528344,0.0011754,0.0642983,0.0477531,-0.102865
 7,0.0132647,-0.0923284,0.0477829,-0.1100907,-0.0890169,0.0906365,0.022
 2976,0.0302235,0.0097724,-0.1225937,-0.0016978,-0.1150268,-0.0024473,0
 .0637741,0.0003786,-0.0260576,0.0037323,0.0010292,0.0051904,0.0939657,
 0.0525887,0.1101726,-0.0956235,-0.0935762,0.0289679,-0.0295691,-0.0072
 562,-0.5863896,-0.1587407,0.1091815,-0.1943891,-0.8146009,0.0847732,0.
 1146462,0.067144,-0.7483795,0.2438022,-0.0472515,-0.0502335,-0.0534709
 ,0.3651993,0.1320744,-0.0680949,0.1140685,0.4998779,-0.2901344,-0.0852
 827,0.2125442,-0.1199925,-0.5549866,0.1315727,0.1889689,0.0571296,-0.6
 893275,0.1107695,-0.0241427,-0.0994847,0.0207134,0.1362146,0.0317749,-
 0.1520869,-0.0239151,0.1759646,0.1026557,0.0651557,0.0447012,0.0282992
 ,0.0585556,-0.0592536,0.0495505,-0.1400298,0.2325391|Polar=58.1560763,
 0.2950575,63.6730423,-4.6020996,2.4038381,68.2254741|PG=C01 [X(C4H11N1
 O1)]|NImag=0||0.55155319,-0.05719320,0.56785579,0.02193606,0.04482265,
 0.46093996,-0.24006261,0.01522500,-0.08952900,0.27140246,0.01660615,-0
 .05321497,0.00246702,-0.00324974,0.05628573,-0.08796878,0.00268538,-0.
 08984534,0.09277401,-0.00676723,0.09771104,-0.10633745,0.10784179,0.03
 146878,-0.01313590,0.02466872,0.00793505,0.11013940,0.09909676,-0.2303
 8891,-0.06008222,0.00272832,0.00013890,-0.00089323,-0.10214174,0.26425
 344,0.03003327,-0.06356273,-0.06969440,-0.00732748,0.01145673,0.004882
 48,-0.03667177,0.06093452,0.07434929,-0.08047259,0.00352358,-0.0047398
 2,0.00113262,-0.00125478,-0.03074060,-0.00015993,0.00105724,0.01664718
 ,0.56444737,0.00309792,-0.08523954,-0.01738714,0.00190177,0.00219325,0
 .00093204,-0.00032608,0.00017159,-0.02851028,0.05122861,0.52920304,-0.
 00192876,-0.01183388,-0.17840597,0.00049275,-0.00272905,-0.01634322,-0
 .00162474,-0.00026557,-0.00938359,0.02137159,-0.03186861,0.48127981,-0
 .00229334,-0.00141519,-0.00107797,0.00016625,0.00015655,0.00034014,-0.
 00011750,0.00017106,0.00024980,-0.10065165,-0.09715651,0.03749755,0.10
 683340,0.00065887,0.00039172,-0.00127694,0.00018653,0.00009480,0.00046
 300,0.00008787,0.00076531,0.00035069,-0.09541368,-0.22165190,0.0682283
 6,0.10435166,0.24293040,0.01624952,0.02807416,-0.00600014,-0.00132574,
 -0.00041271,0.00077571,0.00056119,-0.00047580,0.00115834,0.03696860,0.
 06966896,-0.07573055,-0.04438280,-0.07450948,0.08220350,0.00053159,-0.
 00110475,0.00130804,0.00117684,-0.00042686,0.00050766,0.00056123,-0.00
 028605,-0.00053377,-0.26075464,-0.00277067,-0.08929931,-0.01265948,-0.
 00003503,-0.00536027,0.28500627,-0.00290059,-0.00052242,-0.00017637,0.
 00055948,0.00079904,-0.00053744,-0.00041086,-0.00009051,-0.00001832,-0
 .00291896,-0.04896007,-0.00148267,-0.02440580,0.00014419,-0.01117382,0
 .00045103,0.05093796,-0.03363977,-0.00203036,-0.01552354,0.00078812,-0
 .00013137,-0.00669968,0.00036028,-0.00009067,0.00121228,-0.08817789,-0
 .00113303,-0.08399875,0.01019636,-0.00044364,0.00411604,0.09798108,0.0
 0407072,0.09286387,-0.00099697,0.00215251,0.00494271,0.00016525,-0.001
 43165,-0.00203835,0.00030315,-0.00015147,-0.00117909,-0.11221212,0.038
 20885,0.01466071,0.00694063,-0.01443370,-0.00554825,-0.01829025,0.0270
 9076,0.01038283,0.58279337,0.00265959,0.00333108,-0.01051745,-0.000266
 71,-0.00012612,0.00157679,-0.00005479,0.00134207,0.00219007,0.04559103
 ,-0.13209868,-0.02271296,0.01369113,-0.02025198,-0.00768320,-0.0003297
 1,-0.00151079,0.00006032,-0.01156740,0.46095843,0.01844397,-0.03307461
 ,-0.01349181,0.00078313,-0.00017751,0.00136893,0.00050429,-0.00029058,
 -0.00664622,0.01534470,-0.02312281,-0.09065815,-0.00540295,0.00908770,
 0.00205239,-0.00692948,0.00994382,0.00326268,0.06127303,0.00916772,0.4
 9208266,-0.00025958,-0.00104156,-0.00165468,0.00078086,0.00012237,0.00
 111557,0.00059117,-0.00002506,0.00009675,-0.01722862,0.00243317,-0.006
 49987,0.00067555,0.00031581,0.00002759,-0.00050816,0.00308016,0.001001
 42,-0.24601284,0.00013661,-0.09939965,0.27165276,0.00022185,0.00112365
 ,0.00164661,-0.00069608,0.00011964,-0.00062568,-0.00029490,0.00002273,
 0.00025192,0.02576083,-0.00139577,0.01003045,-0.00061700,0.00072208,0.
 00038059,0.00298092,-0.00399219,-0.00183826,0.00684013,-0.04810806,0.0
 0237567,0.00206647,0.06036049,0.00168476,0.00025433,0.00103861,-0.0004
 4722,-0.00003880,0.00000604,-0.00006877,0.00005587,0.00014707,0.009558
 89,-0.00068858,0.00389174,-0.00046976,0.00046157,0.00015580,0.00158415
 ,-0.00170235,-0.00029008,-0.10308734,0.00009827,-0.10024292,0.10632739
 ,-0.00203950,0.11165885,-0.00217226,0.00271031,-0.00049868,0.00053576,
 0.00008805,0.00030823,0.00038912,0.00015317,0.00107421,-0.00249988,0.0
 0277669,0.02040227,0.00032678,-0.00107183,-0.00007626,0.00037681,-0.00
 045060,0.00078708,-0.08169829,0.00239397,0.00414162,0.00471531,0.00081
 831,-0.02893550,0.56573407,0.00256116,-0.00604864,0.00044845,-0.000054
 15,0.00015277,0.00004082,0.00030660,-0.00013413,-0.00187942,0.00321803
 ,0.00151689,-0.02872659,-0.00001783,0.00049958,-0.00060319,-0.00034357
 ,0.00051273,0.00027737,0.00295419,-0.07658720,-0.00637525,0.00052592,0
 .00109359,0.00090287,-0.00020138,0.57643859,0.00051546,-0.00088816,0.0
 0030453,0.00014310,-0.00000350,0.00006020,-0.00005328,0.00011262,-0.00
 009604,0.00382176,-0.00611243,-0.01567683,-0.00002638,0.00094179,-0.00
 000226,-0.00092926,0.00142839,0.00102185,0.00803295,-0.00040311,-0.178
 69993,0.00250244,-0.00035228,-0.01794118,0.01281648,0.00651162,0.45993
 714,0.00002800,0.00012687,0.00027652,-0.00002345,-0.00000501,-0.000053
 14,-0.00001284,0.00002255,0.00003948,-0.00015273,-0.00056490,-0.000278
 70,0.00019901,0.00063603,0.00035566,0.00002214,-0.00006802,0.00010193,
 -0.00324873,-0.00261295,-0.00090007,0.00032826,0.00028208,0.00021641,-
 0.11563265,-0.10959760,0.03393198,0.12110023,-0.00005045,0.00008678,0.
 00020016,0.00004662,0.00000597,0.00000478,-0.00000933,0.00004306,0.000
 06120,0.00027087,-0.00025282,-0.00040044,0.00021519,0.00049966,-0.0004
 9308,0.00008080,0.00001771,-0.00002665,0.00031986,-0.00184786,-0.00120
 623,0.00022832,0.00019175,0.00046113,-0.11018709,-0.22450239,0.0544249
 2,0.12122541,0.24263643,-0.00003901,0.00026072,-0.00037528,-0.00006040
 ,-0.00001147,-0.00000299,-0.00003468,-0.00004318,0.00005512,-0.0000553
 2,0.00078453,0.00116857,0.00021479,-0.00085128,-0.00029881,-0.00002891
 ,-0.00009011,-0.00001321,0.01623502,0.02617938,-0.00276223,-0.00080804
 ,-0.00005760,0.00101791,0.03333060,0.05310478,-0.06476217,-0.03768464,
 -0.05973235,0.06807205,0.00033506,-0.00013069,0.00016805,-0.00011290,0
 .00007977,0.00014218,0.00000676,-0.00001821,-0.00010368,0.00082707,-0.
 00001820,0.00031374,-0.00006760,0.00006215,-0.00009828,0.00037014,-0.0
 0042263,-0.00024754,0.00262762,-0.00105378,0.00259411,0.00135386,-0.00
 004993,0.00113081,-0.24923026,0.00332761,-0.10716588,-0.01363518,0.001
 35485,-0.00708433,0.26959056,0.00012252,-0.00000775,-0.00014960,0.0000
 6250,-0.00003613,0.00006436,-0.00000131,-0.00000832,-0.00001041,-0.000
 76272,0.00007270,-0.00024036,-0.00016561,-0.00006024,-0.00006937,0.000
 16937,0.00021187,-0.00018717,0.00044592,-0.00103049,0.00088828,0.00005
 966,0.00067227,0.00024762,0.00374017,-0.04776981,0.00161306,-0.0236991
 4,0.00126992,-0.01353233,-0.00378322,0.04631179,0.00019442,0.00003117,
 -0.00022276,0.00020314,0.00004346,0.00032194,0.00014294,-0.00001077,0.
 00002537,-0.00146488,0.00116314,0.00180423,0.00006973,-0.00011669,-0.0
 0006245,0.00101671,-0.00044569,0.00001508,-0.03172310,-0.00023946,-0.0
 1813730,0.00161527,0.00030238,-0.00640761,-0.10672083,0.00211364,-0.10
 355093,0.00804197,-0.00094928,0.00387307,0.11812809,-0.00194140,0.1148
 5506,0.00038323,0.00078805,-0.00048464,-0.00000198,-0.00000177,0.00014
 618,-0.00001886,-0.00001264,0.00017710,0.00073296,-0.00068424,0.001737
 16,0.00002833,0.00025252,-0.00019905,0.00045428,-0.00029317,-0.0002715
 7,-0.00290865,0.00300991,0.00046991,0.00050039,-0.00057765,0.00019148,
 -0.11731464,0.10790052,0.04109887,0.00937425,-0.01363578,-0.00607758,-
 0.01397508,0.02310616,0.00943673,0.12296874,0.00012449,-0.00009945,0.0
 0085055,-0.00004015,-0.00000642,-0.00007897,-0.00002119,-0.00002842,-0
 .00010032,-0.00074138,0.00065655,-0.00077536,0.00002847,0.00048257,0.0
 0016135,0.00002627,0.00000136,0.00011465,-0.00201605,-0.00060734,0.002
 37685,-0.00028032,0.00015251,-0.00063343,0.10822685,-0.21486575,-0.064
 44360,0.01432317,-0.01987720,-0.00804181,-0.00084473,0.00018683,0.0006
 4070,-0.11895836,0.23127255,0.00115729,-0.00227775,0.00057219,-0.00008
 990,0.00004561,0.00001842,0.00005701,-0.00004249,-0.00078009,-0.000317
 93,0.00227413,-0.00690903,-0.00037985,0.00012461,0.00013798,0.00028855
 ,0.00009095,0.00004238,0.01840293,-0.02808756,-0.01055040,-0.00056276,
 0.00011748,0.00130196,0.04105342,-0.06314609,-0.07115211,-0.00531701,0
 .00655382,0.00214243,-0.00719790,0.01320163,0.00463762,-0.04598142,0.0
 7039397,0.07817591,-0.12346184,-0.04410704,0.04586365,-0.02182367,-0.0
 3428422,0.01737346,0.00923503,0.00199533,-0.00348997,-0.00408303,-0.00
 946336,0.00675523,0.00136312,0.00049285,0.00115613,0.00173530,0.001051
 30,0.00167241,0.00031891,-0.00057172,-0.00171322,0.00030636,-0.0002690
 2,-0.00029134,0.00000012,0.00013761,0.00001279,0.00003080,-0.00003238,
 -0.00013494,0.00005669,0.00000438,0.00004160,-0.00003734,0.00020039,0.
 00004578,0.20678656,-0.06955918,-0.16404124,0.04722645,-0.01791186,-0.
 00762164,0.00414504,-0.02593067,-0.03478002,0.01689166,-0.00832716,-0.
 00577868,0.01062639,-0.00050810,0.00153435,0.00148855,0.00136735,0.000
 35055,-0.00041558,-0.00142110,-0.00810937,0.00111895,0.00036796,0.0002
 3473,-0.00015304,0.00012373,0.00263717,-0.00010908,0.00039856,0.000421
 39,-0.00088145,0.00000931,-0.00021652,0.00000910,-0.00044065,0.0004775
 4,0.00073232,-0.00828186,0.54819134,0.03668752,0.01548823,-0.09517311,
 0.00260964,-0.00363692,0.00775938,-0.00458881,-0.00351716,0.00559771,0
 .02586915,0.03536532,-0.01585679,0.00220976,-0.00023665,-0.00880486,0.
 00013982,0.00005468,0.00445978,-0.00201873,0.00003410,0.00331335,0.000
 72397,-0.00015859,-0.00027912,0.00019437,0.00028219,-0.00009186,-0.000
 14210,0.00012017,0.00009744,-0.00009090,0.00002839,0.00009903,-0.00006
 114,-0.00036263,0.00003491,-0.14783666,0.10822731,0.22024907,0.0058756
 7,-0.02468875,-0.00947841,-0.00096793,-0.00164119,-0.00003440,-0.00170
 919,-0.00293302,0.00143572,0.00103672,-0.00029716,0.00135836,-0.000463
 86,0.00018049,0.00011009,-0.00023869,0.00031846,-0.00045454,-0.0011187
 1,-0.00278551,0.00297034,-0.00036633,0.00011493,0.00011508,0.00000276,
 0.00062019,-0.00006916,0.00015779,0.00017892,-0.00024249,-0.00004520,-
 0.00008134,-0.00011635,-0.00012806,0.00006798,0.00012772,-0.07214222,0
 .12241170,0.07900524,0.07382705,0.00522808,-0.03563148,-0.00995162,0.0
 0153808,0.00130975,-0.00078161,-0.00372407,-0.00155004,0.00181195,0.00
 122982,0.00167191,0.00005737,0.00060438,0.00002184,-0.00153535,-0.0000
 4291,-0.00024495,0.00058597,0.00053093,0.00596617,0.00326924,-0.000247
 42,-0.00035171,0.00008600,-0.00065592,-0.00217591,0.00022452,-0.000253
 99,-0.00027161,0.00076716,0.00004025,0.00012518,-0.00002808,0.00021943
 ,-0.00015863,-0.00041100,0.08832649,-0.33199416,-0.14219299,-0.0902418
 9,0.37058166,-0.00538724,0.01775372,0.00869246,0.00151213,0.00008453,-
 0.00035756,0.00240343,0.00508497,-0.00148801,-0.00004847,0.00200365,0.
 00078894,0.00001117,-0.00084729,-0.00036085,-0.00027971,0.00013861,-0.
 00053280,0.00375537,0.00545803,-0.00294910,-0.00067954,-0.00037371,0.0
 0018769,-0.00055985,-0.00140203,0.00028440,-0.00023984,-0.00043037,0.0
 0062349,0.00006107,0.00012117,-0.00003076,0.00018469,-0.00007716,-0.00
 025984,0.07308354,-0.17580271,-0.11244309,-0.06753969,0.14664490,0.106
 98891,-0.00257927,-0.00257948,0.00120220,0.00086418,0.00060012,0.00018
 083,0.00024389,0.00026977,-0.00045119,0.00982530,0.01419132,-0.0066942
 4,-0.00081584,0.00462865,0.00162767,0.00173801,-0.00001253,-0.00013503
 ,-0.12125301,-0.02803398,0.02004953,-0.01721957,-0.03296886,0.01131269
 ,-0.00503448,-0.01209917,0.00640797,0.00090473,-0.00035702,0.00272672,
 0.00209151,0.00098499,0.00016200,0.00030085,-0.00043142,-0.00171100,0.
 00225927,0.00716085,0.00680745,-0.00470188,-0.00278650,-0.00609006,0.6
 2701488,-0.00042187,0.00294447,0.00148786,-0.00016724,-0.00013284,-0.0
 0036337,-0.00001449,0.00013970,0.00025994,-0.01516067,-0.03705880,0.00
 983540,0.00341551,-0.00480296,-0.00240778,-0.00092733,0.00245155,0.000
 71200,-0.03823426,-0.15432458,0.05361786,-0.00439806,-0.00647305,0.001
 34014,-0.00944994,-0.01322100,0.00852562,-0.00041106,0.00106309,0.0027
 1445,0.00115985,0.00027190,-0.00150480,-0.00051992,0.00215035,-0.00086
 330,0.00427932,-0.00245572,-0.01013044,-0.00083589,-0.00670792,0.00337
 303,-0.07744798,0.56873507,0.00238391,0.00421564,-0.00334471,-0.000604
 11,-0.00031947,0.00038562,-0.00041597,-0.00052017,0.00077234,-0.003656
 66,-0.00305878,0.00424968,0.00050113,-0.00133460,0.00038159,0.00050046
 ,0.00028469,-0.00003786,-0.00053313,0.00804995,-0.07737965,-0.00491430
 ,-0.01018205,0.00514323,0.02191528,0.03727672,-0.01255491,0.00185155,0
 .00216839,-0.00867676,0.00009103,-0.00037943,0.00280610,-0.00125012,0.
 00023648,0.00324685,0.00467252,-0.01162046,-0.00634474,-0.00343010,0.0
 0289897,-0.00023690,0.10833571,0.03965320,0.25036396,0.00013340,0.0001
 5560,-0.00007836,-0.00010274,-0.00005998,0.00005679,0.00000584,-0.0000
 0579,0.00005624,0.00161058,0.00013412,0.00049677,-0.00008784,0.0000618
 1,0.00004324,0.00016919,-0.00042979,-0.00043494,-0.01697934,-0.0031749
 9,-0.01063537,0.00025701,-0.00351488,0.00161843,0.00150986,0.00189515,
 -0.00032289,0.00067330,0.00043297,-0.00036013,-0.00007227,-0.00041062,
 0.00096965,-0.00038022,0.00000574,0.00029223,-0.00087405,0.00026082,0.
 00003636,0.00152730,-0.00022682,0.00027331,-0.30688635,-0.03100512,-0.
 15216113,0.33831289,-0.00014483,-0.00034424,-0.00024412,0.00017776,0.0
 0004584,0.00025179,0.00003891,0.00003451,-0.00002265,-0.00176227,0.001
 20198,-0.00066259,0.00063318,0.00022856,0.00041647,0.00125236,-0.00056
 541,0.00024790,-0.02971306,-0.00327076,-0.01810134,-0.00304806,-0.0053
 8149,0.00196548,0.00002832,0.00106336,-0.00093771,0.00036463,0.0000216
 2,-0.00017085,0.00036489,0.00002448,0.00086555,0.00023817,-0.00001482,
 0.00016295,0.00052476,-0.00007355,0.00027622,-0.00062024,0.00026519,-0
 .00073766,-0.03892676,-0.06743572,-0.02139090,0.04120041,0.06948467,-0
 .00103399,-0.00084892,0.00037452,0.00031074,0.00026089,0.00001720,0.00
 015299,0.00014567,-0.00005144,-0.00048576,-0.00071023,-0.00046694,0.00
 031044,0.00003694,-0.00000503,-0.00000682,-0.00040157,0.00015121,0.013
 96269,0.00504876,0.00200483,0.00142953,0.00126854,0.00038587,0.0022847
 1,-0.00015465,0.00190160,-0.00052477,-0.00024009,-0.00017709,-0.000651
 41,0.00031175,0.00007950,0.00014415,-0.00004763,-0.00016828,0.00237392
 ,0.00031361,0.00053949,-0.00418317,-0.00053630,-0.00267870,-0.19902460
 ,-0.02292547,-0.12510954,0.17451569,0.02017833,0.12302407,-0.00020424,
 -0.00026305,0.00037556,0.00000697,0.00003347,-0.00004483,0.00001610,0.
 00007978,-0.00005280,-0.00139744,-0.00269133,0.00123948,0.00062402,-0.
 00096099,-0.00010903,0.00030943,-0.00023823,0.00008978,0.01156999,-0.0
 1703071,-0.00159388,0.00043358,-0.00009718,-0.00044017,-0.00000812,-0.
 00113328,-0.00071696,-0.00011293,-0.00008176,0.00010334,-0.00012078,0.
 00020826,0.00000291,0.00002180,0.00033024,0.00013286,0.00032998,0.0002
 8030,0.00045506,-0.00054523,0.00046208,-0.00046031,-0.18675223,0.17013
 915,0.02671395,-0.01881656,0.02939185,0.01042565,0.19464566,-0.0001072
 7,-0.00019486,0.00063570,-0.00004014,-0.00000757,-0.00011647,-0.000014
 44,0.00006904,-0.00010453,-0.00553838,-0.00425166,0.00292010,0.0010189
 1,-0.00154798,-0.00082629,-0.00006123,0.00045937,0.00022779,0.02042555
 ,-0.02372451,-0.00949775,-0.00029598,0.00100885,-0.00061759,0.00095718
 ,0.00139013,-0.00053267,-0.00016661,0.00049450,-0.00039860,-0.00007729
 ,-0.00001768,0.00006704,-0.00039057,0.00027777,0.00113073,-0.00000284,
 0.00122385,0.00035876,0.00023230,-0.00085528,-0.00099168,0.16780801,-0
 .28514355,-0.04597819,-0.00531862,0.00471579,-0.00169962,-0.17842860,0
 .30610380,0.00071137,0.00093041,0.00015479,-0.00023293,-0.00013019,-0.
 00005815,-0.00012793,-0.00010182,-0.00006021,0.00010546,0.00040011,0.0
 0024686,0.00013884,-0.00007807,0.00028361,0.00004106,0.00001647,-0.000
 04923,-0.00552025,0.01178035,-0.00256713,-0.00032109,-0.00074598,0.000
 22614,-0.00151714,0.00132876,0.00101851,0.00032476,-0.00051609,0.00001
 847,0.00001085,0.00003381,-0.00010518,0.00073925,-0.00021363,-0.000490
 89,0.00041510,-0.00179707,-0.00315658,0.00042577,-0.00090913,0.0037717
 0,0.05529335,-0.08332432,-0.03366428,-0.01436588,0.01790314,0.00017874
 ,-0.03612059,0.05542325,0.03425283||-0.00003769,-0.00005725,0.00003236
 ,0.00000860,0.00000430,-0.00000989,0.00000296,-0.00001118,0.00001392,-
 0.00000261,0.00000234,0.00001003,-0.00001001,0.00000079,-0.00000575,-0
 .00000517,0.00000301,-0.00000553,-0.00001271,-0.00003765,0.00000552,0.
 00000116,0.00001317,0.00000467,0.00001154,0.00001479,0.00000066,0.0000
 0837,0.00001437,-0.00000671,0.00001228,0.00000540,-0.00000253,0.000001
 33,0.00001055,-0.00000131,-0.00002050,0.00003253,-0.00003274,0.0000197
 2,-0.00001742,0.00000626,0.00000783,-0.00000043,-0.00000503,0.00001247
 ,0.00000864,-0.00000038,0.00000245,0.00001405,-0.00000354|||@


 MATERIAL COPIED FROM ONE SCHOLARLY BOOK WITHOUT CREDIT COMPRISES PLAGIARISM.
 MATERIAL COPIED FROM TWO SCHOLARLY BOOKS COMPRISES AN ESSAY.
 MATERIAL COPIED FROM THREE SCHOLARLY BOOKS COMPRISES A DISSERTATION.
 MATERIAL COPIED FROM FOUR SCHOLARLY BOOKS COMPRISES A FIFTH SCHOLARLY BOOK.

                               -- C&EN, 25 FEB 1980
 Job cpu time:       0 days  0 hours 16 minutes  9.0 seconds.
 File lengths (MBytes):  RWF=     52 Int=      0 D2E=      0 Chk=      3 Scr=      1
 Normal termination of Gaussian 09 at Sun Jun 25 05:11:59 2023.
